 Entering Gaussian System, Link 0=gdv
 Input=H.com
 Output=H.log
 Initial command:
 /home1/gaussian/gdv/H36/gdv/l1.exe "/state/partition1/Gau-1730.inp" -scrdir="/state/partition1/"
 Entering Link 1 = /home1/gaussian/gdv/H36/gdv/l1.exe PID=      1731.
  
 Copyright (c) 1988,1990,1992,1993,1995,1998,2003,2009,2014,
            Gaussian, Inc.  All Rights Reserved.
  
 This is the private, development version of
 the Gaussian(R) DV system of programs. It is based on
 the Gaussian(R) 09 system (copyright 2009, Gaussian, Inc.),
 the Gaussian(R) 03 system (copyright 2003, Gaussian, Inc.),
 the Gaussian(R) 98 system (copyright 1998, Gaussian, Inc.),
 the Gaussian(R) 94 system (copyright 1995, Gaussian, Inc.),
 the Gaussian 92(TM) system (copyright 1992, Gaussian, Inc.),
 the Gaussian 90(TM) system (copyright 1990, Gaussian, Inc.),
 the Gaussian 88(TM) system (copyright 1988, Gaussian, Inc.),
 the Gaussian 86(TM) system (copyright 1986, Carnegie Mellon
 University), and the Gaussian 82(TM) system (copyright 1983,
 Carnegie Mellon University). Gaussian is a federally registered
 trademark of Gaussian, Inc.
  
 This software contains proprietary and confidential information,
 including trade secrets, belonging to Gaussian, Inc.
  
 This software is provided under written license and may be
 used, copied, transmitted, or stored only in accord with that
 written license.
  
 The following legend is applicable only to US Government
 contracts under FAR:
  
                    RESTRICTED RIGHTS LEGEND
  
 Use, reproduction and disclosure by the US Government is
 subject to restrictions as set forth in subparagraphs (a)
 and (c) of the Commercial Computer Software - Restricted
 Rights clause in FAR 52.227-19.
  
 Gaussian, Inc.
 340 Quinnipiac St., Bldg. 40, Wallingford CT 06492
  
  
 ---------------------------------------------------------------
 Warning -- This program may not be used in any manner that
 competes with the business of Gaussian, Inc. or will provide
 assistance to any competitor of Gaussian, Inc.  The licensee
 of this program is prohibited from giving any competitor of
 Gaussian, Inc. access to this program.  By using this program,
 the user acknowledges that Gaussian, Inc. is engaged in the
 business of creating and licensing software in the field of
 computational chemistry and represents and warrants to the
 licensee that it is not a competitor of Gaussian, Inc. and that
 it will not use this program in any manner prohibited above.
 ---------------------------------------------------------------
  

 Cite this work as:
 Gaussian Development Version, Revision H.36,
 M. J. Frisch, G. W. Trucks, H. B. Schlegel, G. E. Scuseria, 
 M. A. Robb, J. R. Cheeseman, G. Scalmani, V. Barone, B. Mennucci, 
 G. A. Petersson, H. Nakatsuji, M. Caricato, X. Li, H. P. Hratchian, 
 A. F. Izmaylov, J. Bloino, B. G. Janesko, F. Lipparini, G. Zheng, 
 J. L. Sonnenberg, W. Liang, M. Hada, M. Ehara, K. Toyota, R. Fukuda, 
 J. Hasegawa, M. Ishida, T. Nakajima, Y. Honda, O. Kitao, H. Nakai, 
 T. Vreven, J. A. Montgomery, Jr., J. E. Peralta, F. Ogliaro, 
 M. Bearpark, J. J. Heyd, E. Brothers, K. N. Kudin, V. N. Staroverov, 
 T. Keith, R. Kobayashi, J. Normand, K. Raghavachari, A. Rendell, 
 J. C. Burant, S. S. Iyengar, J. Tomasi, M. Cossi, N. Rega, 
 J. M. Millam, M. Klene, J. E. Knox, J. B. Cross, V. Bakken, 
 C. Adamo, J. Jaramillo, R. Gomperts, R. E. Stratmann, O. Yazyev, 
 A. J. Austin, R. Cammi, C. Pomelli, J. W. Ochterski, R. L. Martin, 
 K. Morokuma, V. G. Zakrzewski, G. A. Voth, P. Salvador, 
 J. J. Dannenberg, S. Dapprich, P. V. Parandekar, N. J. Mayhall, 
 A. D. Daniels, O. Farkas, J. B. Foresman, J. V. Ortiz, 
 J. Cioslowski, and D. J. Fox, Gaussian, Inc., Wallingford CT, 2010.
 
 ******************************************
 Gaussian DV:  ES64L-GDVRevH.36  7-Apr-2014
                15-Dec-2014 
 ******************************************
 %mem=8GB
 ----------------------------------------------------------------------
 #p hf/sto-3g nosymm iop1=timestamp scf=(incore,novaracc) integral=acc2
 e=10
 ----------------------------------------------------------------------
 1/38=1,172=1/1;
 2/12=2,15=1,17=6,18=5,40=1/2;
 3/6=3,11=9,16=1,25=1,27=10,30=1/1,2,3;
 4//1;
 5/5=3,38=1,87=10/2;
 6/7=2,8=2,9=2,10=2,28=1/1;
 99/5=1,9=1/99;
 Leave Link    1 at Mon Dec 15 11:21:33 2014, MaxMem=  1073741824 cpu:               0.1 elap:               0.1
 (Enter /home1/gaussian/gdv/H36/gdv/l101.exe)
 Top of link  101.    Mon Dec 15 11:21:33 2014        0.00 cpu,        0.00 elapsed
 -
 d
 -
 Symbolic Z-matrix:
 Charge =  0 Multiplicity = 1
 H                    0     0.        0.        0. 
 H                    0     1.5       0.        0. 
 H                    0     3.        0.        0. 
 H                    0     4.5       0.        0. 
 H                    0     6.        0.        0. 
 H                    0     7.5       0.        0. 
 H                    0     9.        0.        0. 
 H                    0     10.5      0.        0. 
 H                    0     12.       0.        0. 
 H                    0     13.5      0.        0. 
 H                    0     0.        1.5       0. 
 H                    0     0.        3.        0. 
 H                    0     0.        4.5       0. 
 H                    0     0.        6.        0. 
 H                    0     0.        7.5       0. 
 H                    0     0.        9.        0. 
 H                    0     0.        10.5      0. 
 H                    0     0.        12.       0. 
 H                    0     0.        13.5      0. 
 H                    0     1.5       1.5       0. 
 H                    0     1.5       3.        0. 
 H                    0     1.5       4.5       0. 
 H                    0     1.5       6.        0. 
 H                    0     1.5       7.5       0. 
 H                    0     1.5       9.        0. 
 H                    0     1.5       10.5      0. 
 H                    0     1.5       12.       0. 
 H                    0     1.5       13.5      0. 
 H                    0     3.        1.5       0. 
 H                    0     3.        3.        0. 
 H                    0     3.        4.5       0. 
 H                    0     3.        6.        0. 
 H                    0     3.        7.5       0. 
 H                    0     3.        9.        0. 
 H                    0     3.        10.5      0. 
 H                    0     3.        12.       0. 
 H                    0     3.        13.5      0. 
 H                    0     4.5       1.5       0. 
 H                    0     4.5       3.        0. 
 H                    0     4.5       4.5       0. 
 H                    0     4.5       6.        0. 
 H                    0     4.5       7.5       0. 
 H                    0     4.5       9.        0. 
 H                    0     4.5       10.5      0. 
 H                    0     4.5       12.       0. 
 H                    0     4.5       13.5      0. 
 H                    0     6.        1.5       0. 
 H                    0     6.        3.        0. 
 H                    0     6.        4.5       0. 
 H                    0     6.        6.        0. 
 H                    0     6.        7.5       0. 
 H                    0     6.        9.        0. 
 H                    0     6.        10.5      0. 
 H                    0     6.        12.       0. 
 H                    0     6.        13.5      0. 
 H                    0     7.5       1.5       0. 
 H                    0     7.5       3.        0. 
 H                    0     7.5       4.5       0. 
 H                    0     7.5       6.        0. 
 H                    0     7.5       7.5       0. 
 H                    0     7.5       9.        0. 
 H                    0     7.5       10.5      0. 
 H                    0     7.5       12.       0. 
 H                    0     7.5       13.5      0. 
 H                    0     9.        1.5       0. 
 H                    0     9.        3.        0. 
 H                    0     9.        4.5       0. 
 H                    0     9.        6.        0. 
 H                    0     9.        7.5       0. 
 H                    0     9.        9.        0. 
 H                    0     9.        10.5      0. 
 H                    0     9.        12.       0. 
 H                    0     9.        13.5      0. 
 H                    0     10.5      1.5       0. 
 H                    0     10.5      3.        0. 
 H                    0     10.5      4.5       0. 
 H                    0     10.5      6.        0. 
 H                    0     10.5      7.5       0. 
 H                    0     10.5      9.        0. 
 H                    0     10.5      10.5      0. 
 H                    0     10.5      12.       0. 
 H                    0     10.5      13.5      0. 
 H                    0     12.       1.5       0. 
 H                    0     12.       3.        0. 
 H                    0     12.       4.5       0. 
 H                    0     12.       6.        0. 
 H                    0     12.       7.5       0. 
 H                    0     12.       9.        0. 
 H                    0     12.       10.5      0. 
 H                    0     12.       12.       0. 
 H                    0     12.       13.5      0. 
 H                    0     13.5      1.5       0. 
 H                    0     13.5      3.        0. 
 H                    0     13.5      4.5       0. 
 H                    0     13.5      6.        0. 
 H                    0     13.5      7.5       0. 
 H                    0     13.5      9.        0. 
 H                    0     13.5      10.5      0. 
 H                    0     13.5      12.       0. 
 H                    0     13.5      13.5      0. 
 H                    0     0.        0.        1.5 
 H                    0     0.        0.        3. 
 H                    0     0.        0.        4.5 
 H                    0     0.        0.        6. 
 H                    0     0.        0.        7.5 
 H                    0     0.        0.        9. 
 H                    0     0.        0.        10.5 
 H                    0     0.        0.        12. 
 H                    0     0.        0.        13.5 
 H                    0     1.5       0.        1.5 
 H                    0     1.5       0.        3. 
 H                    0     1.5       0.        4.5 
 H                    0     1.5       0.        6. 
 H                    0     1.5       0.        7.5 
 H                    0     1.5       0.        9. 
 H                    0     1.5       0.        10.5 
 H                    0     1.5       0.        12. 
 H                    0     1.5       0.        13.5 
 H                    0     3.        0.        1.5 
 H                    0     3.        0.        3. 
 H                    0     3.        0.        4.5 
 H                    0     3.        0.        6. 
 H                    0     3.        0.        7.5 
 H                    0     3.        0.        9. 
 H                    0     3.        0.        10.5 
 H                    0     3.        0.        12. 
 H                    0     3.        0.        13.5 
 H                    0     4.5       0.        1.5 
 H                    0     4.5       0.        3. 
 H                    0     4.5       0.        4.5 
 H                    0     4.5       0.        6. 
 H                    0     4.5       0.        7.5 
 H                    0     4.5       0.        9. 
 H                    0     4.5       0.        10.5 
 H                    0     4.5       0.        12. 
 H                    0     4.5       0.        13.5 
 H                    0     6.        0.        1.5 
 H                    0     6.        0.        3. 
 H                    0     6.        0.        4.5 
 H                    0     6.        0.        6. 
 H                    0     6.        0.        7.5 
 H                    0     6.        0.        9. 
 H                    0     6.        0.        10.5 
 H                    0     6.        0.        12. 
 H                    0     6.        0.        13.5 
 H                    0     7.5       0.        1.5 
 H                    0     7.5       0.        3. 
 H                    0     7.5       0.        4.5 
 H                    0     7.5       0.        6. 
 H                    0     7.5       0.        7.5 
 H                    0     7.5       0.        9. 
 H                    0     7.5       0.        10.5 
 H                    0     7.5       0.        12. 
 H                    0     7.5       0.        13.5 
 H                    0     9.        0.        1.5 
 H                    0     9.        0.        3. 
 H                    0     9.        0.        4.5 
 H                    0     9.        0.        6. 
 H                    0     9.        0.        7.5 
 H                    0     9.        0.        9. 
 H                    0     9.        0.        10.5 
 H                    0     9.        0.        12. 
 H                    0     9.        0.        13.5 
 H                    0     10.5      0.        1.5 
 H                    0     10.5      0.        3. 
 H                    0     10.5      0.        4.5 
 H                    0     10.5      0.        6. 
 H                    0     10.5      0.        7.5 
 H                    0     10.5      0.        9. 
 H                    0     10.5      0.        10.5 
 H                    0     10.5      0.        12. 
 H                    0     10.5      0.        13.5 
 H                    0     12.       0.        1.5 
 H                    0     12.       0.        3. 
 H                    0     12.       0.        4.5 
 H                    0     12.       0.        6. 
 H                    0     12.       0.        7.5 
 H                    0     12.       0.        9. 
 H                    0     12.       0.        10.5 
 H                    0     12.       0.        12. 
 H                    0     12.       0.        13.5 
 H                    0     13.5      0.        1.5 
 H                    0     13.5      0.        3. 
 H                    0     13.5      0.        4.5 
 H                    0     13.5      0.        6. 
 H                    0     13.5      0.        7.5 
 H                    0     13.5      0.        9. 
 H                    0     13.5      0.        10.5 
 H                    0     13.5      0.        12. 
 H                    0     13.5      0.        13.5 
 H                    0     0.        1.5       1.5 
 H                    0     0.        1.5       3. 
 H                    0     0.        1.5       4.5 
 H                    0     0.        1.5       6. 
 H                    0     0.        1.5       7.5 
 H                    0     0.        1.5       9. 
 H                    0     0.        1.5       10.5 
 H                    0     0.        1.5       12. 
 H                    0     0.        1.5       13.5 
 H                    0     0.        3.        1.5 
 H                    0     0.        3.        3. 
 H                    0     0.        3.        4.5 
 H                    0     0.        3.        6. 
 H                    0     0.        3.        7.5 
 H                    0     0.        3.        9. 
 H                    0     0.        3.        10.5 
 H                    0     0.        3.        12. 
 H                    0     0.        3.        13.5 
 H                    0     0.        4.5       1.5 
 H                    0     0.        4.5       3. 
 H                    0     0.        4.5       4.5 
 H                    0     0.        4.5       6. 
 H                    0     0.        4.5       7.5 
 H                    0     0.        4.5       9. 
 H                    0     0.        4.5       10.5 
 H                    0     0.        4.5       12. 
 H                    0     0.        4.5       13.5 
 H                    0     0.        6.        1.5 
 H                    0     0.        6.        3. 
 H                    0     0.        6.        4.5 
 H                    0     0.        6.        6. 
 H                    0     0.        6.        7.5 
 H                    0     0.        6.        9. 
 H                    0     0.        6.        10.5 
 H                    0     0.        6.        12. 
 H                    0     0.        6.        13.5 
 H                    0     0.        7.5       1.5 
 H                    0     0.        7.5       3. 
 H                    0     0.        7.5       4.5 
 H                    0     0.        7.5       6. 
 H                    0     0.        7.5       7.5 
 H                    0     0.        7.5       9. 
 H                    0     0.        7.5       10.5 
 H                    0     0.        7.5       12. 
 H                    0     0.        7.5       13.5 
 H                    0     0.        9.        1.5 
 H                    0     0.        9.        3. 
 H                    0     0.        9.        4.5 
 H                    0     0.        9.        6. 
 H                    0     0.        9.        7.5 
 H                    0     0.        9.        9. 
 H                    0     0.        9.        10.5 
 H                    0     0.        9.        12. 
 H                    0     0.        9.        13.5 
 H                    0     0.        10.5      1.5 
 H                    0     0.        10.5      3. 
 H                    0     0.        10.5      4.5 
 H                    0     0.        10.5      6. 
 H                    0     0.        10.5      7.5 
 H                    0     0.        10.5      9. 
 
 Top GenCBx           Mon Dec 15 11:21:33 2014        0.38 cpu,        0.38 elapsed
 Bot GenCBx           Mon Dec 15 11:21:33 2014        0.00 cpu,        0.00 elapsed
 ITRead=  0  0  0  0  0  0  0  0  0  0  0  0  0  0  0  0  0  0  0  0
 ITRead=  0  0  0  0  0  0  0  0  0  0  0  0  0  0  0  0  0  0  0  0
 ITRead=  0  0  0  0  0  0  0  0  0  0  0  0  0  0  0  0  0  0  0  0
 ITRead=  0  0  0  0  0  0  0  0  0  0  0  0  0  0  0  0  0  0  0  0
 ITRead=  0  0  0  0  0  0  0  0  0  0  0  0  0  0  0  0  0  0  0  0
 ITRead=  0  0  0  0  0  0  0  0  0  0  0  0  0  0  0  0  0  0  0  0
 ITRead=  0  0  0  0  0  0  0  0  0  0  0  0  0  0  0  0  0  0  0  0
 ITRead=  0  0  0  0  0  0  0  0  0  0  0  0  0  0  0  0  0  0  0  0
 ITRead=  0  0  0  0  0  0  0  0  0  0  0  0  0  0  0  0  0  0  0  0
 ITRead=  0  0  0  0  0  0  0  0  0  0  0  0  0  0  0  0  0  0  0  0
 ITRead=  0  0  0  0  0  0  0  0  0  0  0  0  0  0  0  0  0  0  0  0
 ITRead=  0  0  0  0  0  0  0  0  0  0  0  0  0  0  0  0  0  0  0  0
 ITRead=  0  0  0  0  0  0  0  0  0  0
 MicOpt= -1 -1 -1 -1 -1 -1 -1 -1 -1 -1 -1 -1 -1 -1 -1 -1 -1 -1 -1 -1
 MicOpt= -1 -1 -1 -1 -1 -1 -1 -1 -1 -1 -1 -1 -1 -1 -1 -1 -1 -1 -1 -1
 MicOpt= -1 -1 -1 -1 -1 -1 -1 -1 -1 -1 -1 -1 -1 -1 -1 -1 -1 -1 -1 -1
 MicOpt= -1 -1 -1 -1 -1 -1 -1 -1 -1 -1 -1 -1 -1 -1 -1 -1 -1 -1 -1 -1
 MicOpt= -1 -1 -1 -1 -1 -1 -1 -1 -1 -1 -1 -1 -1 -1 -1 -1 -1 -1 -1 -1
 MicOpt= -1 -1 -1 -1 -1 -1 -1 -1 -1 -1 -1 -1 -1 -1 -1 -1 -1 -1 -1 -1
 MicOpt= -1 -1 -1 -1 -1 -1 -1 -1 -1 -1 -1 -1 -1 -1 -1 -1 -1 -1 -1 -1
 MicOpt= -1 -1 -1 -1 -1 -1 -1 -1 -1 -1 -1 -1 -1 -1 -1 -1 -1 -1 -1 -1
 MicOpt= -1 -1 -1 -1 -1 -1 -1 -1 -1 -1 -1 -1 -1 -1 -1 -1 -1 -1 -1 -1
 MicOpt= -1 -1 -1 -1 -1 -1 -1 -1 -1 -1 -1 -1 -1 -1 -1 -1 -1 -1 -1 -1
 MicOpt= -1 -1 -1 -1 -1 -1 -1 -1 -1 -1 -1 -1 -1 -1 -1 -1 -1 -1 -1 -1
 MicOpt= -1 -1 -1 -1 -1 -1 -1 -1 -1 -1 -1 -1 -1 -1 -1 -1 -1 -1 -1 -1
 MicOpt= -1 -1 -1 -1 -1 -1 -1 -1 -1 -1
 Aft Large/GenITR2    Mon Dec 15 11:21:33 2014        0.00 cpu,        0.00 elapsed
 NAtoms=    250 NQM=      250 NQMF=       0 NMMI=      0 NMMIF=      0
                NMic=       0 NMicF=      0.
                    Isotopes and Nuclear Properties:
 (Nuclear quadrupole moments (NQMom) in fm**2, nuclear magnetic moments (NMagM)
  in nuclear magnetons)

  Atom         1           2           3           4           5           6           7           8           9          10
 IAtWgt=           1           1           1           1           1           1           1           1           1           1
 AtmWgt=   1.0078250   1.0078250   1.0078250   1.0078250   1.0078250   1.0078250   1.0078250   1.0078250   1.0078250   1.0078250
 NucSpn=           1           1           1           1           1           1           1           1           1           1
 AtZEff=   0.0000000   0.0000000   0.0000000   0.0000000   0.0000000   0.0000000   0.0000000   0.0000000   0.0000000   0.0000000
 NQMom=    0.0000000   0.0000000   0.0000000   0.0000000   0.0000000   0.0000000   0.0000000   0.0000000   0.0000000   0.0000000
 NMagM=    2.7928460   2.7928460   2.7928460   2.7928460   2.7928460   2.7928460   2.7928460   2.7928460   2.7928460   2.7928460
 AtZNuc=   1.0000000   1.0000000   1.0000000   1.0000000   1.0000000   1.0000000   1.0000000   1.0000000   1.0000000   1.0000000

  Atom        11          12          13          14          15          16          17          18          19          20
 IAtWgt=           1           1           1           1           1           1           1           1           1           1
 AtmWgt=   1.0078250   1.0078250   1.0078250   1.0078250   1.0078250   1.0078250   1.0078250   1.0078250   1.0078250   1.0078250
 NucSpn=           1           1           1           1           1           1           1           1           1           1
 AtZEff=   0.0000000   0.0000000   0.0000000   0.0000000   0.0000000   0.0000000   0.0000000   0.0000000   0.0000000   0.0000000
 NQMom=    0.0000000   0.0000000   0.0000000   0.0000000   0.0000000   0.0000000   0.0000000   0.0000000   0.0000000   0.0000000
 NMagM=    2.7928460   2.7928460   2.7928460   2.7928460   2.7928460   2.7928460   2.7928460   2.7928460   2.7928460   2.7928460
 AtZNuc=   1.0000000   1.0000000   1.0000000   1.0000000   1.0000000   1.0000000   1.0000000   1.0000000   1.0000000   1.0000000

  Atom        21          22          23          24          25          26          27          28          29          30
 IAtWgt=           1           1           1           1           1           1           1           1           1           1
 AtmWgt=   1.0078250   1.0078250   1.0078250   1.0078250   1.0078250   1.0078250   1.0078250   1.0078250   1.0078250   1.0078250
 NucSpn=           1           1           1           1           1           1           1           1           1           1
 AtZEff=   0.0000000   0.0000000   0.0000000   0.0000000   0.0000000   0.0000000   0.0000000   0.0000000   0.0000000   0.0000000
 NQMom=    0.0000000   0.0000000   0.0000000   0.0000000   0.0000000   0.0000000   0.0000000   0.0000000   0.0000000   0.0000000
 NMagM=    2.7928460   2.7928460   2.7928460   2.7928460   2.7928460   2.7928460   2.7928460   2.7928460   2.7928460   2.7928460
 AtZNuc=   1.0000000   1.0000000   1.0000000   1.0000000   1.0000000   1.0000000   1.0000000   1.0000000   1.0000000   1.0000000

  Atom        31          32          33          34          35          36          37          38          39          40
 IAtWgt=           1           1           1           1           1           1           1           1           1           1
 AtmWgt=   1.0078250   1.0078250   1.0078250   1.0078250   1.0078250   1.0078250   1.0078250   1.0078250   1.0078250   1.0078250
 NucSpn=           1           1           1           1           1           1           1           1           1           1
 AtZEff=   0.0000000   0.0000000   0.0000000   0.0000000   0.0000000   0.0000000   0.0000000   0.0000000   0.0000000   0.0000000
 NQMom=    0.0000000   0.0000000   0.0000000   0.0000000   0.0000000   0.0000000   0.0000000   0.0000000   0.0000000   0.0000000
 NMagM=    2.7928460   2.7928460   2.7928460   2.7928460   2.7928460   2.7928460   2.7928460   2.7928460   2.7928460   2.7928460
 AtZNuc=   1.0000000   1.0000000   1.0000000   1.0000000   1.0000000   1.0000000   1.0000000   1.0000000   1.0000000   1.0000000

  Atom        41          42          43          44          45          46          47          48          49          50
 IAtWgt=           1           1           1           1           1           1           1           1           1           1
 AtmWgt=   1.0078250   1.0078250   1.0078250   1.0078250   1.0078250   1.0078250   1.0078250   1.0078250   1.0078250   1.0078250
 NucSpn=           1           1           1           1           1           1           1           1           1           1
 AtZEff=   0.0000000   0.0000000   0.0000000   0.0000000   0.0000000   0.0000000   0.0000000   0.0000000   0.0000000   0.0000000
 NQMom=    0.0000000   0.0000000   0.0000000   0.0000000   0.0000000   0.0000000   0.0000000   0.0000000   0.0000000   0.0000000
 NMagM=    2.7928460   2.7928460   2.7928460   2.7928460   2.7928460   2.7928460   2.7928460   2.7928460   2.7928460   2.7928460
 AtZNuc=   1.0000000   1.0000000   1.0000000   1.0000000   1.0000000   1.0000000   1.0000000   1.0000000   1.0000000   1.0000000

  Atom        51          52          53          54          55          56          57          58          59          60
 IAtWgt=           1           1           1           1           1           1           1           1           1           1
 AtmWgt=   1.0078250   1.0078250   1.0078250   1.0078250   1.0078250   1.0078250   1.0078250   1.0078250   1.0078250   1.0078250
 NucSpn=           1           1           1           1           1           1           1           1           1           1
 AtZEff=   0.0000000   0.0000000   0.0000000   0.0000000   0.0000000   0.0000000   0.0000000   0.0000000   0.0000000   0.0000000
 NQMom=    0.0000000   0.0000000   0.0000000   0.0000000   0.0000000   0.0000000   0.0000000   0.0000000   0.0000000   0.0000000
 NMagM=    2.7928460   2.7928460   2.7928460   2.7928460   2.7928460   2.7928460   2.7928460   2.7928460   2.7928460   2.7928460
 AtZNuc=   1.0000000   1.0000000   1.0000000   1.0000000   1.0000000   1.0000000   1.0000000   1.0000000   1.0000000   1.0000000

  Atom        61          62          63          64          65          66          67          68          69          70
 IAtWgt=           1           1           1           1           1           1           1           1           1           1
 AtmWgt=   1.0078250   1.0078250   1.0078250   1.0078250   1.0078250   1.0078250   1.0078250   1.0078250   1.0078250   1.0078250
 NucSpn=           1           1           1           1           1           1           1           1           1           1
 AtZEff=   0.0000000   0.0000000   0.0000000   0.0000000   0.0000000   0.0000000   0.0000000   0.0000000   0.0000000   0.0000000
 NQMom=    0.0000000   0.0000000   0.0000000   0.0000000   0.0000000   0.0000000   0.0000000   0.0000000   0.0000000   0.0000000
 NMagM=    2.7928460   2.7928460   2.7928460   2.7928460   2.7928460   2.7928460   2.7928460   2.7928460   2.7928460   2.7928460
 AtZNuc=   1.0000000   1.0000000   1.0000000   1.0000000   1.0000000   1.0000000   1.0000000   1.0000000   1.0000000   1.0000000

  Atom        71          72          73          74          75          76          77          78          79          80
 IAtWgt=           1           1           1           1           1           1           1           1           1           1
 AtmWgt=   1.0078250   1.0078250   1.0078250   1.0078250   1.0078250   1.0078250   1.0078250   1.0078250   1.0078250   1.0078250
 NucSpn=           1           1           1           1           1           1           1           1           1           1
 AtZEff=   0.0000000   0.0000000   0.0000000   0.0000000   0.0000000   0.0000000   0.0000000   0.0000000   0.0000000   0.0000000
 NQMom=    0.0000000   0.0000000   0.0000000   0.0000000   0.0000000   0.0000000   0.0000000   0.0000000   0.0000000   0.0000000
 NMagM=    2.7928460   2.7928460   2.7928460   2.7928460   2.7928460   2.7928460   2.7928460   2.7928460   2.7928460   2.7928460
 AtZNuc=   1.0000000   1.0000000   1.0000000   1.0000000   1.0000000   1.0000000   1.0000000   1.0000000   1.0000000   1.0000000

  Atom        81          82          83          84          85          86          87          88          89          90
 IAtWgt=           1           1           1           1           1           1           1           1           1           1
 AtmWgt=   1.0078250   1.0078250   1.0078250   1.0078250   1.0078250   1.0078250   1.0078250   1.0078250   1.0078250   1.0078250
 NucSpn=           1           1           1           1           1           1           1           1           1           1
 AtZEff=   0.0000000   0.0000000   0.0000000   0.0000000   0.0000000   0.0000000   0.0000000   0.0000000   0.0000000   0.0000000
 NQMom=    0.0000000   0.0000000   0.0000000   0.0000000   0.0000000   0.0000000   0.0000000   0.0000000   0.0000000   0.0000000
 NMagM=    2.7928460   2.7928460   2.7928460   2.7928460   2.7928460   2.7928460   2.7928460   2.7928460   2.7928460   2.7928460
 AtZNuc=   1.0000000   1.0000000   1.0000000   1.0000000   1.0000000   1.0000000   1.0000000   1.0000000   1.0000000   1.0000000

  Atom        91          92          93          94          95          96          97          98          99         100
 IAtWgt=           1           1           1           1           1           1           1           1           1           1
 AtmWgt=   1.0078250   1.0078250   1.0078250   1.0078250   1.0078250   1.0078250   1.0078250   1.0078250   1.0078250   1.0078250
 NucSpn=           1           1           1           1           1           1           1           1           1           1
 AtZEff=   0.0000000   0.0000000   0.0000000   0.0000000   0.0000000   0.0000000   0.0000000   0.0000000   0.0000000   0.0000000
 NQMom=    0.0000000   0.0000000   0.0000000   0.0000000   0.0000000   0.0000000   0.0000000   0.0000000   0.0000000   0.0000000
 NMagM=    2.7928460   2.7928460   2.7928460   2.7928460   2.7928460   2.7928460   2.7928460   2.7928460   2.7928460   2.7928460
 AtZNuc=   1.0000000   1.0000000   1.0000000   1.0000000   1.0000000   1.0000000   1.0000000   1.0000000   1.0000000   1.0000000

  Atom       101         102         103         104         105         106         107         108         109         110
 IAtWgt=           1           1           1           1           1           1           1           1           1           1
 AtmWgt=   1.0078250   1.0078250   1.0078250   1.0078250   1.0078250   1.0078250   1.0078250   1.0078250   1.0078250   1.0078250
 NucSpn=           1           1           1           1           1           1           1           1           1           1
 AtZEff=   0.0000000   0.0000000   0.0000000   0.0000000   0.0000000   0.0000000   0.0000000   0.0000000   0.0000000   0.0000000
 NQMom=    0.0000000   0.0000000   0.0000000   0.0000000   0.0000000   0.0000000   0.0000000   0.0000000   0.0000000   0.0000000
 NMagM=    2.7928460   2.7928460   2.7928460   2.7928460   2.7928460   2.7928460   2.7928460   2.7928460   2.7928460   2.7928460
 AtZNuc=   1.0000000   1.0000000   1.0000000   1.0000000   1.0000000   1.0000000   1.0000000   1.0000000   1.0000000   1.0000000

  Atom       111         112         113         114         115         116         117         118         119         120
 IAtWgt=           1           1           1           1           1           1           1           1           1           1
 AtmWgt=   1.0078250   1.0078250   1.0078250   1.0078250   1.0078250   1.0078250   1.0078250   1.0078250   1.0078250   1.0078250
 NucSpn=           1           1           1           1           1           1           1           1           1           1
 AtZEff=   0.0000000   0.0000000   0.0000000   0.0000000   0.0000000   0.0000000   0.0000000   0.0000000   0.0000000   0.0000000
 NQMom=    0.0000000   0.0000000   0.0000000   0.0000000   0.0000000   0.0000000   0.0000000   0.0000000   0.0000000   0.0000000
 NMagM=    2.7928460   2.7928460   2.7928460   2.7928460   2.7928460   2.7928460   2.7928460   2.7928460   2.7928460   2.7928460
 AtZNuc=   1.0000000   1.0000000   1.0000000   1.0000000   1.0000000   1.0000000   1.0000000   1.0000000   1.0000000   1.0000000

  Atom       121         122         123         124         125         126         127         128         129         130
 IAtWgt=           1           1           1           1           1           1           1           1           1           1
 AtmWgt=   1.0078250   1.0078250   1.0078250   1.0078250   1.0078250   1.0078250   1.0078250   1.0078250   1.0078250   1.0078250
 NucSpn=           1           1           1           1           1           1           1           1           1           1
 AtZEff=   0.0000000   0.0000000   0.0000000   0.0000000   0.0000000   0.0000000   0.0000000   0.0000000   0.0000000   0.0000000
 NQMom=    0.0000000   0.0000000   0.0000000   0.0000000   0.0000000   0.0000000   0.0000000   0.0000000   0.0000000   0.0000000
 NMagM=    2.7928460   2.7928460   2.7928460   2.7928460   2.7928460   2.7928460   2.7928460   2.7928460   2.7928460   2.7928460
 AtZNuc=   1.0000000   1.0000000   1.0000000   1.0000000   1.0000000   1.0000000   1.0000000   1.0000000   1.0000000   1.0000000

  Atom       131         132         133         134         135         136         137         138         139         140
 IAtWgt=           1           1           1           1           1           1           1           1           1           1
 AtmWgt=   1.0078250   1.0078250   1.0078250   1.0078250   1.0078250   1.0078250   1.0078250   1.0078250   1.0078250   1.0078250
 NucSpn=           1           1           1           1           1           1           1           1           1           1
 AtZEff=   0.0000000   0.0000000   0.0000000   0.0000000   0.0000000   0.0000000   0.0000000   0.0000000   0.0000000   0.0000000
 NQMom=    0.0000000   0.0000000   0.0000000   0.0000000   0.0000000   0.0000000   0.0000000   0.0000000   0.0000000   0.0000000
 NMagM=    2.7928460   2.7928460   2.7928460   2.7928460   2.7928460   2.7928460   2.7928460   2.7928460   2.7928460   2.7928460
 AtZNuc=   1.0000000   1.0000000   1.0000000   1.0000000   1.0000000   1.0000000   1.0000000   1.0000000   1.0000000   1.0000000

  Atom       141         142         143         144         145         146         147         148         149         150
 IAtWgt=           1           1           1           1           1           1           1           1           1           1
 AtmWgt=   1.0078250   1.0078250   1.0078250   1.0078250   1.0078250   1.0078250   1.0078250   1.0078250   1.0078250   1.0078250
 NucSpn=           1           1           1           1           1           1           1           1           1           1
 AtZEff=   0.0000000   0.0000000   0.0000000   0.0000000   0.0000000   0.0000000   0.0000000   0.0000000   0.0000000   0.0000000
 NQMom=    0.0000000   0.0000000   0.0000000   0.0000000   0.0000000   0.0000000   0.0000000   0.0000000   0.0000000   0.0000000
 NMagM=    2.7928460   2.7928460   2.7928460   2.7928460   2.7928460   2.7928460   2.7928460   2.7928460   2.7928460   2.7928460
 AtZNuc=   1.0000000   1.0000000   1.0000000   1.0000000   1.0000000   1.0000000   1.0000000   1.0000000   1.0000000   1.0000000

  Atom       151         152         153         154         155         156         157         158         159         160
 IAtWgt=           1           1           1           1           1           1           1           1           1           1
 AtmWgt=   1.0078250   1.0078250   1.0078250   1.0078250   1.0078250   1.0078250   1.0078250   1.0078250   1.0078250   1.0078250
 NucSpn=           1           1           1           1           1           1           1           1           1           1
 AtZEff=   0.0000000   0.0000000   0.0000000   0.0000000   0.0000000   0.0000000   0.0000000   0.0000000   0.0000000   0.0000000
 NQMom=    0.0000000   0.0000000   0.0000000   0.0000000   0.0000000   0.0000000   0.0000000   0.0000000   0.0000000   0.0000000
 NMagM=    2.7928460   2.7928460   2.7928460   2.7928460   2.7928460   2.7928460   2.7928460   2.7928460   2.7928460   2.7928460
 AtZNuc=   1.0000000   1.0000000   1.0000000   1.0000000   1.0000000   1.0000000   1.0000000   1.0000000   1.0000000   1.0000000

  Atom       161         162         163         164         165         166         167         168         169         170
 IAtWgt=           1           1           1           1           1           1           1           1           1           1
 AtmWgt=   1.0078250   1.0078250   1.0078250   1.0078250   1.0078250   1.0078250   1.0078250   1.0078250   1.0078250   1.0078250
 NucSpn=           1           1           1           1           1           1           1           1           1           1
 AtZEff=   0.0000000   0.0000000   0.0000000   0.0000000   0.0000000   0.0000000   0.0000000   0.0000000   0.0000000   0.0000000
 NQMom=    0.0000000   0.0000000   0.0000000   0.0000000   0.0000000   0.0000000   0.0000000   0.0000000   0.0000000   0.0000000
 NMagM=    2.7928460   2.7928460   2.7928460   2.7928460   2.7928460   2.7928460   2.7928460   2.7928460   2.7928460   2.7928460
 AtZNuc=   1.0000000   1.0000000   1.0000000   1.0000000   1.0000000   1.0000000   1.0000000   1.0000000   1.0000000   1.0000000

  Atom       171         172         173         174         175         176         177         178         179         180
 IAtWgt=           1           1           1           1           1           1           1           1           1           1
 AtmWgt=   1.0078250   1.0078250   1.0078250   1.0078250   1.0078250   1.0078250   1.0078250   1.0078250   1.0078250   1.0078250
 NucSpn=           1           1           1           1           1           1           1           1           1           1
 AtZEff=   0.0000000   0.0000000   0.0000000   0.0000000   0.0000000   0.0000000   0.0000000   0.0000000   0.0000000   0.0000000
 NQMom=    0.0000000   0.0000000   0.0000000   0.0000000   0.0000000   0.0000000   0.0000000   0.0000000   0.0000000   0.0000000
 NMagM=    2.7928460   2.7928460   2.7928460   2.7928460   2.7928460   2.7928460   2.7928460   2.7928460   2.7928460   2.7928460
 AtZNuc=   1.0000000   1.0000000   1.0000000   1.0000000   1.0000000   1.0000000   1.0000000   1.0000000   1.0000000   1.0000000

  Atom       181         182         183         184         185         186         187         188         189         190
 IAtWgt=           1           1           1           1           1           1           1           1           1           1
 AtmWgt=   1.0078250   1.0078250   1.0078250   1.0078250   1.0078250   1.0078250   1.0078250   1.0078250   1.0078250   1.0078250
 NucSpn=           1           1           1           1           1           1           1           1           1           1
 AtZEff=   0.0000000   0.0000000   0.0000000   0.0000000   0.0000000   0.0000000   0.0000000   0.0000000   0.0000000   0.0000000
 NQMom=    0.0000000   0.0000000   0.0000000   0.0000000   0.0000000   0.0000000   0.0000000   0.0000000   0.0000000   0.0000000
 NMagM=    2.7928460   2.7928460   2.7928460   2.7928460   2.7928460   2.7928460   2.7928460   2.7928460   2.7928460   2.7928460
 AtZNuc=   1.0000000   1.0000000   1.0000000   1.0000000   1.0000000   1.0000000   1.0000000   1.0000000   1.0000000   1.0000000

  Atom       191         192         193         194         195         196         197         198         199         200
 IAtWgt=           1           1           1           1           1           1           1           1           1           1
 AtmWgt=   1.0078250   1.0078250   1.0078250   1.0078250   1.0078250   1.0078250   1.0078250   1.0078250   1.0078250   1.0078250
 NucSpn=           1           1           1           1           1           1           1           1           1           1
 AtZEff=   0.0000000   0.0000000   0.0000000   0.0000000   0.0000000   0.0000000   0.0000000   0.0000000   0.0000000   0.0000000
 NQMom=    0.0000000   0.0000000   0.0000000   0.0000000   0.0000000   0.0000000   0.0000000   0.0000000   0.0000000   0.0000000
 NMagM=    2.7928460   2.7928460   2.7928460   2.7928460   2.7928460   2.7928460   2.7928460   2.7928460   2.7928460   2.7928460
 AtZNuc=   1.0000000   1.0000000   1.0000000   1.0000000   1.0000000   1.0000000   1.0000000   1.0000000   1.0000000   1.0000000

  Atom       201         202         203         204         205         206         207         208         209         210
 IAtWgt=           1           1           1           1           1           1           1           1           1           1
 AtmWgt=   1.0078250   1.0078250   1.0078250   1.0078250   1.0078250   1.0078250   1.0078250   1.0078250   1.0078250   1.0078250
 NucSpn=           1           1           1           1           1           1           1           1           1           1
 AtZEff=   0.0000000   0.0000000   0.0000000   0.0000000   0.0000000   0.0000000   0.0000000   0.0000000   0.0000000   0.0000000
 NQMom=    0.0000000   0.0000000   0.0000000   0.0000000   0.0000000   0.0000000   0.0000000   0.0000000   0.0000000   0.0000000
 NMagM=    2.7928460   2.7928460   2.7928460   2.7928460   2.7928460   2.7928460   2.7928460   2.7928460   2.7928460   2.7928460
 AtZNuc=   1.0000000   1.0000000   1.0000000   1.0000000   1.0000000   1.0000000   1.0000000   1.0000000   1.0000000   1.0000000

  Atom       211         212         213         214         215         216         217         218         219         220
 IAtWgt=           1           1           1           1           1           1           1           1           1           1
 AtmWgt=   1.0078250   1.0078250   1.0078250   1.0078250   1.0078250   1.0078250   1.0078250   1.0078250   1.0078250   1.0078250
 NucSpn=           1           1           1           1           1           1           1           1           1           1
 AtZEff=   0.0000000   0.0000000   0.0000000   0.0000000   0.0000000   0.0000000   0.0000000   0.0000000   0.0000000   0.0000000
 NQMom=    0.0000000   0.0000000   0.0000000   0.0000000   0.0000000   0.0000000   0.0000000   0.0000000   0.0000000   0.0000000
 NMagM=    2.7928460   2.7928460   2.7928460   2.7928460   2.7928460   2.7928460   2.7928460   2.7928460   2.7928460   2.7928460
 AtZNuc=   1.0000000   1.0000000   1.0000000   1.0000000   1.0000000   1.0000000   1.0000000   1.0000000   1.0000000   1.0000000

  Atom       221         222         223         224         225         226         227         228         229         230
 IAtWgt=           1           1           1           1           1           1           1           1           1           1
 AtmWgt=   1.0078250   1.0078250   1.0078250   1.0078250   1.0078250   1.0078250   1.0078250   1.0078250   1.0078250   1.0078250
 NucSpn=           1           1           1           1           1           1           1           1           1           1
 AtZEff=   0.0000000   0.0000000   0.0000000   0.0000000   0.0000000   0.0000000   0.0000000   0.0000000   0.0000000   0.0000000
 NQMom=    0.0000000   0.0000000   0.0000000   0.0000000   0.0000000   0.0000000   0.0000000   0.0000000   0.0000000   0.0000000
 NMagM=    2.7928460   2.7928460   2.7928460   2.7928460   2.7928460   2.7928460   2.7928460   2.7928460   2.7928460   2.7928460
 AtZNuc=   1.0000000   1.0000000   1.0000000   1.0000000   1.0000000   1.0000000   1.0000000   1.0000000   1.0000000   1.0000000

  Atom       231         232         233         234         235         236         237         238         239         240
 IAtWgt=           1           1           1           1           1           1           1           1           1           1
 AtmWgt=   1.0078250   1.0078250   1.0078250   1.0078250   1.0078250   1.0078250   1.0078250   1.0078250   1.0078250   1.0078250
 NucSpn=           1           1           1           1           1           1           1           1           1           1
 AtZEff=   0.0000000   0.0000000   0.0000000   0.0000000   0.0000000   0.0000000   0.0000000   0.0000000   0.0000000   0.0000000
 NQMom=    0.0000000   0.0000000   0.0000000   0.0000000   0.0000000   0.0000000   0.0000000   0.0000000   0.0000000   0.0000000
 NMagM=    2.7928460   2.7928460   2.7928460   2.7928460   2.7928460   2.7928460   2.7928460   2.7928460   2.7928460   2.7928460
 AtZNuc=   1.0000000   1.0000000   1.0000000   1.0000000   1.0000000   1.0000000   1.0000000   1.0000000   1.0000000   1.0000000

  Atom       241         242         243         244         245         246         247         248         249         250
 IAtWgt=           1           1           1           1           1           1           1           1           1           1
 AtmWgt=   1.0078250   1.0078250   1.0078250   1.0078250   1.0078250   1.0078250   1.0078250   1.0078250   1.0078250   1.0078250
 NucSpn=           1           1           1           1           1           1           1           1           1           1
 AtZEff=   0.0000000   0.0000000   0.0000000   0.0000000   0.0000000   0.0000000   0.0000000   0.0000000   0.0000000   0.0000000
 NQMom=    0.0000000   0.0000000   0.0000000   0.0000000   0.0000000   0.0000000   0.0000000   0.0000000   0.0000000   0.0000000
 NMagM=    2.7928460   2.7928460   2.7928460   2.7928460   2.7928460   2.7928460   2.7928460   2.7928460   2.7928460   2.7928460
 AtZNuc=   1.0000000   1.0000000   1.0000000   1.0000000   1.0000000   1.0000000   1.0000000   1.0000000   1.0000000   1.0000000
 Leave Link  101 at Mon Dec 15 11:21:33 2014, MaxMem=  1073741824 cpu:               0.4 elap:               0.4
 (Enter /home1/gaussian/gdv/H36/gdv/l202.exe)
 Top of link  202.    Mon Dec 15 11:21:33 2014        0.00 cpu,        0.00 elapsed
 Symmetry turned off by external request.
 Stoichiometry    H250
 Framework group  C1[X(H250)]
 Deg. of freedom   744
 Full point group                 C1      NOp   1
                          Input orientation:                          
 ---------------------------------------------------------------------
 Center     Atomic      Atomic             Coordinates (Angstroms)
 Number     Number       Type             X           Y           Z
 ---------------------------------------------------------------------
      1          1           0        0.000000    0.000000    0.000000
      2          1           0        1.500000    0.000000    0.000000
      3          1           0        3.000000    0.000000    0.000000
      4          1           0        4.500000    0.000000    0.000000
      5          1           0        6.000000    0.000000    0.000000
      6          1           0        7.500000    0.000000    0.000000
      7          1           0        9.000000    0.000000    0.000000
      8          1           0       10.500000    0.000000    0.000000
      9          1           0       12.000000    0.000000    0.000000
     10          1           0       13.500000    0.000000    0.000000
     11          1           0        0.000000    1.500000    0.000000
     12          1           0        0.000000    3.000000    0.000000
     13          1           0        0.000000    4.500000    0.000000
     14          1           0        0.000000    6.000000    0.000000
     15          1           0        0.000000    7.500000    0.000000
     16          1           0        0.000000    9.000000    0.000000
     17          1           0        0.000000   10.500000    0.000000
     18          1           0        0.000000   12.000000    0.000000
     19          1           0        0.000000   13.500000    0.000000
     20          1           0        1.500000    1.500000    0.000000
     21          1           0        1.500000    3.000000    0.000000
     22          1           0        1.500000    4.500000    0.000000
     23          1           0        1.500000    6.000000    0.000000
     24          1           0        1.500000    7.500000    0.000000
     25          1           0        1.500000    9.000000    0.000000
     26          1           0        1.500000   10.500000    0.000000
     27          1           0        1.500000   12.000000    0.000000
     28          1           0        1.500000   13.500000    0.000000
     29          1           0        3.000000    1.500000    0.000000
     30          1           0        3.000000    3.000000    0.000000
     31          1           0        3.000000    4.500000    0.000000
     32          1           0        3.000000    6.000000    0.000000
     33          1           0        3.000000    7.500000    0.000000
     34          1           0        3.000000    9.000000    0.000000
     35          1           0        3.000000   10.500000    0.000000
     36          1           0        3.000000   12.000000    0.000000
     37          1           0        3.000000   13.500000    0.000000
     38          1           0        4.500000    1.500000    0.000000
     39          1           0        4.500000    3.000000    0.000000
     40          1           0        4.500000    4.500000    0.000000
     41          1           0        4.500000    6.000000    0.000000
     42          1           0        4.500000    7.500000    0.000000
     43          1           0        4.500000    9.000000    0.000000
     44          1           0        4.500000   10.500000    0.000000
     45          1           0        4.500000   12.000000    0.000000
     46          1           0        4.500000   13.500000    0.000000
     47          1           0        6.000000    1.500000    0.000000
     48          1           0        6.000000    3.000000    0.000000
     49          1           0        6.000000    4.500000    0.000000
     50          1           0        6.000000    6.000000    0.000000
     51          1           0        6.000000    7.500000    0.000000
     52          1           0        6.000000    9.000000    0.000000
     53          1           0        6.000000   10.500000    0.000000
     54          1           0        6.000000   12.000000    0.000000
     55          1           0        6.000000   13.500000    0.000000
     56          1           0        7.500000    1.500000    0.000000
     57          1           0        7.500000    3.000000    0.000000
     58          1           0        7.500000    4.500000    0.000000
     59          1           0        7.500000    6.000000    0.000000
     60          1           0        7.500000    7.500000    0.000000
     61          1           0        7.500000    9.000000    0.000000
     62          1           0        7.500000   10.500000    0.000000
     63          1           0        7.500000   12.000000    0.000000
     64          1           0        7.500000   13.500000    0.000000
     65          1           0        9.000000    1.500000    0.000000
     66          1           0        9.000000    3.000000    0.000000
     67          1           0        9.000000    4.500000    0.000000
     68          1           0        9.000000    6.000000    0.000000
     69          1           0        9.000000    7.500000    0.000000
     70          1           0        9.000000    9.000000    0.000000
     71          1           0        9.000000   10.500000    0.000000
     72          1           0        9.000000   12.000000    0.000000
     73          1           0        9.000000   13.500000    0.000000
     74          1           0       10.500000    1.500000    0.000000
     75          1           0       10.500000    3.000000    0.000000
     76          1           0       10.500000    4.500000    0.000000
     77          1           0       10.500000    6.000000    0.000000
     78          1           0       10.500000    7.500000    0.000000
     79          1           0       10.500000    9.000000    0.000000
     80          1           0       10.500000   10.500000    0.000000
     81          1           0       10.500000   12.000000    0.000000
     82          1           0       10.500000   13.500000    0.000000
     83          1           0       12.000000    1.500000    0.000000
     84          1           0       12.000000    3.000000    0.000000
     85          1           0       12.000000    4.500000    0.000000
     86          1           0       12.000000    6.000000    0.000000
     87          1           0       12.000000    7.500000    0.000000
     88          1           0       12.000000    9.000000    0.000000
     89          1           0       12.000000   10.500000    0.000000
     90          1           0       12.000000   12.000000    0.000000
     91          1           0       12.000000   13.500000    0.000000
     92          1           0       13.500000    1.500000    0.000000
     93          1           0       13.500000    3.000000    0.000000
     94          1           0       13.500000    4.500000    0.000000
     95          1           0       13.500000    6.000000    0.000000
     96          1           0       13.500000    7.500000    0.000000
     97          1           0       13.500000    9.000000    0.000000
     98          1           0       13.500000   10.500000    0.000000
     99          1           0       13.500000   12.000000    0.000000
    100          1           0       13.500000   13.500000    0.000000
    101          1           0        0.000000    0.000000    1.500000
    102          1           0        0.000000    0.000000    3.000000
    103          1           0        0.000000    0.000000    4.500000
    104          1           0        0.000000    0.000000    6.000000
    105          1           0        0.000000    0.000000    7.500000
    106          1           0        0.000000    0.000000    9.000000
    107          1           0        0.000000    0.000000   10.500000
    108          1           0        0.000000    0.000000   12.000000
    109          1           0        0.000000    0.000000   13.500000
    110          1           0        1.500000    0.000000    1.500000
    111          1           0        1.500000    0.000000    3.000000
    112          1           0        1.500000    0.000000    4.500000
    113          1           0        1.500000    0.000000    6.000000
    114          1           0        1.500000    0.000000    7.500000
    115          1           0        1.500000    0.000000    9.000000
    116          1           0        1.500000    0.000000   10.500000
    117          1           0        1.500000    0.000000   12.000000
    118          1           0        1.500000    0.000000   13.500000
    119          1           0        3.000000    0.000000    1.500000
    120          1           0        3.000000    0.000000    3.000000
    121          1           0        3.000000    0.000000    4.500000
    122          1           0        3.000000    0.000000    6.000000
    123          1           0        3.000000    0.000000    7.500000
    124          1           0        3.000000    0.000000    9.000000
    125          1           0        3.000000    0.000000   10.500000
    126          1           0        3.000000    0.000000   12.000000
    127          1           0        3.000000    0.000000   13.500000
    128          1           0        4.500000    0.000000    1.500000
    129          1           0        4.500000    0.000000    3.000000
    130          1           0        4.500000    0.000000    4.500000
    131          1           0        4.500000    0.000000    6.000000
    132          1           0        4.500000    0.000000    7.500000
    133          1           0        4.500000    0.000000    9.000000
    134          1           0        4.500000    0.000000   10.500000
    135          1           0        4.500000    0.000000   12.000000
    136          1           0        4.500000    0.000000   13.500000
    137          1           0        6.000000    0.000000    1.500000
    138          1           0        6.000000    0.000000    3.000000
    139          1           0        6.000000    0.000000    4.500000
    140          1           0        6.000000    0.000000    6.000000
    141          1           0        6.000000    0.000000    7.500000
    142          1           0        6.000000    0.000000    9.000000
    143          1           0        6.000000    0.000000   10.500000
    144          1           0        6.000000    0.000000   12.000000
    145          1           0        6.000000    0.000000   13.500000
    146          1           0        7.500000    0.000000    1.500000
    147          1           0        7.500000    0.000000    3.000000
    148          1           0        7.500000    0.000000    4.500000
    149          1           0        7.500000    0.000000    6.000000
    150          1           0        7.500000    0.000000    7.500000
    151          1           0        7.500000    0.000000    9.000000
    152          1           0        7.500000    0.000000   10.500000
    153          1           0        7.500000    0.000000   12.000000
    154          1           0        7.500000    0.000000   13.500000
    155          1           0        9.000000    0.000000    1.500000
    156          1           0        9.000000    0.000000    3.000000
    157          1           0        9.000000    0.000000    4.500000
    158          1           0        9.000000    0.000000    6.000000
    159          1           0        9.000000    0.000000    7.500000
    160          1           0        9.000000    0.000000    9.000000
    161          1           0        9.000000    0.000000   10.500000
    162          1           0        9.000000    0.000000   12.000000
    163          1           0        9.000000    0.000000   13.500000
    164          1           0       10.500000    0.000000    1.500000
    165          1           0       10.500000    0.000000    3.000000
    166          1           0       10.500000    0.000000    4.500000
    167          1           0       10.500000    0.000000    6.000000
    168          1           0       10.500000    0.000000    7.500000
    169          1           0       10.500000    0.000000    9.000000
    170          1           0       10.500000    0.000000   10.500000
    171          1           0       10.500000    0.000000   12.000000
    172          1           0       10.500000    0.000000   13.500000
    173          1           0       12.000000    0.000000    1.500000
    174          1           0       12.000000    0.000000    3.000000
    175          1           0       12.000000    0.000000    4.500000
    176          1           0       12.000000    0.000000    6.000000
    177          1           0       12.000000    0.000000    7.500000
    178          1           0       12.000000    0.000000    9.000000
    179          1           0       12.000000    0.000000   10.500000
    180          1           0       12.000000    0.000000   12.000000
    181          1           0       12.000000    0.000000   13.500000
    182          1           0       13.500000    0.000000    1.500000
    183          1           0       13.500000    0.000000    3.000000
    184          1           0       13.500000    0.000000    4.500000
    185          1           0       13.500000    0.000000    6.000000
    186          1           0       13.500000    0.000000    7.500000
    187          1           0       13.500000    0.000000    9.000000
    188          1           0       13.500000    0.000000   10.500000
    189          1           0       13.500000    0.000000   12.000000
    190          1           0       13.500000    0.000000   13.500000
    191          1           0        0.000000    1.500000    1.500000
    192          1           0        0.000000    1.500000    3.000000
    193          1           0        0.000000    1.500000    4.500000
    194          1           0        0.000000    1.500000    6.000000
    195          1           0        0.000000    1.500000    7.500000
    196          1           0        0.000000    1.500000    9.000000
    197          1           0        0.000000    1.500000   10.500000
    198          1           0        0.000000    1.500000   12.000000
    199          1           0        0.000000    1.500000   13.500000
    200          1           0        0.000000    3.000000    1.500000
    201          1           0        0.000000    3.000000    3.000000
    202          1           0        0.000000    3.000000    4.500000
    203          1           0        0.000000    3.000000    6.000000
    204          1           0        0.000000    3.000000    7.500000
    205          1           0        0.000000    3.000000    9.000000
    206          1           0        0.000000    3.000000   10.500000
    207          1           0        0.000000    3.000000   12.000000
    208          1           0        0.000000    3.000000   13.500000
    209          1           0        0.000000    4.500000    1.500000
    210          1           0        0.000000    4.500000    3.000000
    211          1           0        0.000000    4.500000    4.500000
    212          1           0        0.000000    4.500000    6.000000
    213          1           0        0.000000    4.500000    7.500000
    214          1           0        0.000000    4.500000    9.000000
    215          1           0        0.000000    4.500000   10.500000
    216          1           0        0.000000    4.500000   12.000000
    217          1           0        0.000000    4.500000   13.500000
    218          1           0        0.000000    6.000000    1.500000
    219          1           0        0.000000    6.000000    3.000000
    220          1           0        0.000000    6.000000    4.500000
    221          1           0        0.000000    6.000000    6.000000
    222          1           0        0.000000    6.000000    7.500000
    223          1           0        0.000000    6.000000    9.000000
    224          1           0        0.000000    6.000000   10.500000
    225          1           0        0.000000    6.000000   12.000000
    226          1           0        0.000000    6.000000   13.500000
    227          1           0        0.000000    7.500000    1.500000
    228          1           0        0.000000    7.500000    3.000000
    229          1           0        0.000000    7.500000    4.500000
    230          1           0        0.000000    7.500000    6.000000
    231          1           0        0.000000    7.500000    7.500000
    232          1           0        0.000000    7.500000    9.000000
    233          1           0        0.000000    7.500000   10.500000
    234          1           0        0.000000    7.500000   12.000000
    235          1           0        0.000000    7.500000   13.500000
    236          1           0        0.000000    9.000000    1.500000
    237          1           0        0.000000    9.000000    3.000000
    238          1           0        0.000000    9.000000    4.500000
    239          1           0        0.000000    9.000000    6.000000
    240          1           0        0.000000    9.000000    7.500000
    241          1           0        0.000000    9.000000    9.000000
    242          1           0        0.000000    9.000000   10.500000
    243          1           0        0.000000    9.000000   12.000000
    244          1           0        0.000000    9.000000   13.500000
    245          1           0        0.000000   10.500000    1.500000
    246          1           0        0.000000   10.500000    3.000000
    247          1           0        0.000000   10.500000    4.500000
    248          1           0        0.000000   10.500000    6.000000
    249          1           0        0.000000   10.500000    7.500000
    250          1           0        0.000000   10.500000    9.000000
 ---------------------------------------------------------------------
 Rotational constants (GHZ):      0.0591467      0.0507118      0.0374936
 Leave Link  202 at Mon Dec 15 11:21:33 2014, MaxMem=  1073741824 cpu:               0.0 elap:               0.0
 (Enter /home1/gaussian/gdv/H36/gdv/l301.exe)
 Top of link  301.    Mon Dec 15 11:21:33 2014        0.00 cpu,        0.00 elapsed
 Standard basis: STO-3G (5D, 7F)
 Ernie: Thresh=  0.10000D-02 Tol=  0.10000D-05 Strict=F.
   250 basis functions,   750 primitive gaussians,   250 cartesian basis functions
   125 alpha electrons      125 beta electrons
       nuclear repulsion energy      2103.1722791377 Hartrees.
 IExCor=    0 DFT=F Ex=HF Corr=None ExCW=0 ScaHFX=  1.000000
 ScaDFX=  1.000000  1.000000  1.000000  1.000000 ScalE2=  1.000000  1.000000
 IRadAn=      0 IRanWt=     -1 IRanGd=            0 ICorTp=0 IEmpDi=  4
 NAtoms=  250 NActive=  250 NUniq=  250 SFac= 1.00D+00 NAtFMM=   60 NAOKFM=T Big=T
 Integral buffers will be    131072 words long.
 Raffenetti 1 integral format.
 Two-electron integral symmetry is turned off.
 Leave Link  301 at Mon Dec 15 11:21:33 2014, MaxMem=  1073741824 cpu:               0.1 elap:               0.1
 (Enter /home1/gaussian/gdv/H36/gdv/l302.exe)
 Top of link  302.    Mon Dec 15 11:21:33 2014        0.00 cpu,        0.00 elapsed
 NPDir=0 NMtPBC=     1 NCelOv=     1 NCel=       1 NClECP=     1 NCelD=      1
         NCelK=      1 NCelE2=     1 NClLst=     1 CellRange=     0.0.
 One-electron integrals computed using PRISM.
 One-electron integral symmetry used in STVInt
 Top of OneElI        Mon Dec 15 11:21:33 2014        0.05 cpu,        0.06 elapsed
 ShPair: Thresh= 1.00D-13 NBox=     1 BxSize= 3.42D+01 RnKept= 2.02D+01
         NSMCal=                31375 NSMKep=               16261
 After ShPair         Mon Dec 15 11:21:33 2014        0.21 cpu,        0.20 elapsed
 PrsmSu:  NPrtUS=   1 ThrOK=F IAlg=1 NPAlg=1 LenDen=           0.
 Top of Prism.        Mon Dec 15 11:21:33 2014        0.00 cpu,        0.00 elapsed
 Prism:   IPart=     0 DynPar=F LinDyn=F Incr=         162.
 End of Prism.        Mon Dec 15 11:21:33 2014        0.01 cpu,        0.01 elapsed
 PrSmSu:  NxtVal=            163.
 Bot of OneElI        Mon Dec 15 11:21:33 2014        0.01 cpu,        0.01 elapsed
 After ST integrals.  Mon Dec 15 11:21:33 2014        0.00 cpu,        0.00 elapsed
 Top of OneElI        Mon Dec 15 11:21:33 2014        0.00 cpu,        0.00 elapsed
 ShPair: Thresh= 1.00D-13 NBox=     1 BxSize= 2.85D+01 RnKept= 1.86D+01
         NSMCal=                31375 NSMKep=               14184
 After ShPair         Mon Dec 15 11:21:34 2014        0.08 cpu,        0.08 elapsed
 PrsmSu:  NPrtUS=   1 ThrOK=F IAlg=1 NPAlg=1 LenDen=           0.
 Top of Prism.        Mon Dec 15 11:21:34 2014        0.00 cpu,        0.00 elapsed
 Prism:   IPart=     0 DynPar=F LinDyn=F Incr=         512.
 End of Prism.        Mon Dec 15 11:21:34 2014        0.26 cpu,        0.27 elapsed
 PrSmSu:  NxtVal=            513.
 Bot of OneElI        Mon Dec 15 11:21:34 2014        0.00 cpu,        0.00 elapsed
 After V integrals.   Mon Dec 15 11:21:34 2014        0.00 cpu,        0.00 elapsed
 After integral evalu Mon Dec 15 11:21:34 2014        0.00 cpu,        0.00 elapsed
 Top of SVDSVc.       Mon Dec 15 11:21:34 2014        0.00 cpu,        0.00 elapsed
 Bot of SVDSVc.       Mon Dec 15 11:21:34 2014        0.04 cpu,        0.04 elapsed
 NBasis=   250 RedAO= T EigKep=  3.81D-01  NBF=   250
 NBsUse=   250 1.00D-06 EigRej= -1.00D+00 NBFU=   250
 Leave Link  302 at Mon Dec 15 11:21:34 2014, MaxMem=  1073741824 cpu:               0.7 elap:               0.7
 (Enter /home1/gaussian/gdv/H36/gdv/l303.exe)
 Top of link  303.    Mon Dec 15 11:21:34 2014        0.00 cpu,        0.00 elapsed
 DipDrv:  MaxL=1.
 Top of OneElI        Mon Dec 15 11:21:34 2014        0.02 cpu,        0.02 elapsed
 ShPair: Thresh= 1.00D-13 NBox=     1 BxSize= 3.42D+01 RnKept= 1.96D+01
         NSMCal=                31375 NSMKep=               15066
 After ShPair         Mon Dec 15 11:21:34 2014        0.09 cpu,        0.09 elapsed
 PrsmSu:  NPrtUS=   1 ThrOK=F IAlg=1 NPAlg=1 LenDen=           0.
 Top of Prism.        Mon Dec 15 11:21:34 2014        0.00 cpu,        0.00 elapsed
 Prism:   IPart=     0 DynPar=F LinDyn=F Incr=         150.
 End of Prism.        Mon Dec 15 11:21:34 2014        0.01 cpu,        0.00 elapsed
 PrSmSu:  NxtVal=            151.
 Bot of OneElI        Mon Dec 15 11:21:34 2014        0.00 cpu,        0.00 elapsed
 Leave Link  303 at Mon Dec 15 11:21:34 2014, MaxMem=  1073741824 cpu:               0.1 elap:               0.1
 (Enter /home1/gaussian/gdv/H36/gdv/l401.exe)
 Top of link  401.    Mon Dec 15 11:21:34 2014        0.00 cpu,        0.00 elapsed
 After setup.         Mon Dec 15 11:21:34 2014        0.06 cpu,        0.05 elapsed
 ExpMin= 1.69D-01 ExpMax= 3.43D+00 ExpMxC= 3.43D+00 IAcc=1 IRadAn=         1 AccDes= 0.00D+00
 Harris functional with IExCor=  205 and IRadAn=       1 diagonalized for initial guess.
 Bef GenChg           Mon Dec 15 11:21:34 2014        0.01 cpu,        0.01 elapsed
 Aft GenChg           Mon Dec 15 11:21:34 2014        0.00 cpu,        0.00 elapsed
 Top of HarFok.       Mon Dec 15 11:21:34 2014        0.00 cpu,        0.00 elapsed
 HarFok:  IExCor=  205 AccDes= 0.00D+00 IRadAn=         1 IDoV= 1 UseB2=F ITyADJ=14
 ICtDFT=  3500011 ScaDFX=  1.000000  1.000000  1.000000  1.000000
 Top of CalDSu        Mon Dec 15 11:21:34 2014        0.00 cpu,        0.00 elapsed
 CalDSu:  NPrtUS=   1 ThrOK=F IAlg=1 NPAlg=1 DoDPD=F LenP=       31375 LenD1P=             0.
 Top of CalDFT.       Mon Dec 15 11:21:34 2014        0.01 cpu,        0.02 elapsed
 IPart=  0 Atom number   1 atomic number  1 has        3236 grid points.
 IPart=  0       613181 of       809344 points in    3254 batches and     5337 microbatches, Max-NSigAt=     250 Max-NSgAt2=     229
 End of CalDFT.       Mon Dec 15 11:21:55 2014       20.45 cpu,       20.48 elapsed
 Bot of CalDSu        Mon Dec 15 11:21:55 2014        0.00 cpu,        0.00 elapsed
 FoFCou: FMM=F IPFlag=           0 FMFlag=      100000 FMFlg1=        2001
         NFxFlg=           0 DoJE=T BraDBF=F KetDBF=T FulRan=T
         wScrn=  0.000000 ICntrl=       500 IOpCl=  0 I1Cent=   200000004 NGrid=           0
         NMat0=    1 NMatS0=      1 NMatT0=    0 NMatD0=    1 NMtDS0=    0 NMtDT0=    0
 Symmetry not used in FoFCou.
 ShPair: Thresh= 1.00D-10 NBox=     6 BxSize= 2.55D+01 RnKept= 1.72D+01
         NSMCal=                31375 NSMKep=               12486
 After ShPair         Mon Dec 15 11:21:55 2014        0.08 cpu,        0.08 elapsed
 After ShPSch         Mon Dec 15 11:21:55 2014        0.00 cpu,        0.00 elapsed
 After FMMEnt         Mon Dec 15 11:21:55 2014        0.00 cpu,        0.00 elapsed
 After BoxK           Mon Dec 15 11:21:55 2014        0.00 cpu,        0.00 elapsed
 After DenIrr         Mon Dec 15 11:21:55 2014        0.00 cpu,        0.00 elapsed
 CoulSu:  IncDef=  1024 NBBP=        3121500 NTPThr=   100 NPartT=    1 Incr=        1024 LDynOK=F.
 CoulSu:  NPrtUS=   1 ThrOK=F IAlg=1 NPAlg=1 LenDen=           0 LWGrdD=           0 DoCopy=F.
 Top of PrismC.       Mon Dec 15 11:21:55 2014        0.00 cpu,        0.00 elapsed
 PrismC:  IPart=     0 DynPar=F LinDyn=F Incr=        1024 UseFst=F UseS4=T IGathr=2.
 End of PrismC.       Mon Dec 15 11:21:57 2014        2.70 cpu,        2.69 elapsed
 CoulSu:  NxtVal=           1025 LenVP=     1072363440 MinMC=     219.
 After Ints           Mon Dec 15 11:21:57 2014        0.00 cpu,        0.00 elapsed
 After FocIrr         Mon Dec 15 11:21:57 2014        0.00 cpu,        0.00 elapsed
 After DenIrr         Mon Dec 15 11:21:57 2014        0.00 cpu,        0.00 elapsed
 CoulSu:  IncDef=  1024 NBBP=        3121500 NTPThr=   100 NPartT=    1 Incr=        1024 LDynOK=F.
 CoulSu:  NPrtUS=   1 ThrOK=F IAlg=1 NPAlg=1 LenDen=           0 LWGrdD=           0 DoCopy=F.
 Top of PrismC.       Mon Dec 15 11:21:57 2014        0.00 cpu,        0.00 elapsed
 PrismC:  IPart=     0 DynPar=F LinDyn=F Incr=        1024 UseFst=F UseS4=T IGathr=2.
 End of PrismC.       Mon Dec 15 11:21:57 2014        0.00 cpu,        0.00 elapsed
 CoulSu:  NxtVal=           1025 LenVP=     1072076570 MinMC=     198.
 After Ints           Mon Dec 15 11:21:57 2014        0.00 cpu,        0.00 elapsed
 After FocIrr         Mon Dec 15 11:21:57 2014        0.00 cpu,        0.00 elapsed
 After CoulSu         Mon Dec 15 11:21:57 2014        0.00 cpu,        0.00 elapsed
 After ShPair         Mon Dec 15 11:21:57 2014        0.00 cpu,        0.00 elapsed
 After ShPSch         Mon Dec 15 11:21:57 2014        0.00 cpu,        0.00 elapsed
 After FMMEnt         Mon Dec 15 11:21:57 2014        0.00 cpu,        0.00 elapsed
 After BoxK           Mon Dec 15 11:21:57 2014        0.00 cpu,        0.00 elapsed
 After DenIrr         Mon Dec 15 11:21:57 2014        0.00 cpu,        0.00 elapsed
 CoulSu:  IncDef=  1024 NBBP=          62500 NTPThr=   100 NPartT=    1 Incr=         625 LDynOK=F.
 CoulSu:  NPrtUS=   1 ThrOK=F IAlg=1 NPAlg=1 LenDen=           0 LWGrdD=           0 DoCopy=F.
 Top of PrismC.       Mon Dec 15 11:21:57 2014        0.00 cpu,        0.00 elapsed
 PrismC:  IPart=     0 DynPar=F LinDyn=F Incr=         625 UseFst=F UseS4=T IGathr=2.
 End of PrismC.       Mon Dec 15 11:21:57 2014        0.13 cpu,        0.13 elapsed
 CoulSu:  NxtVal=            626 LenVP=     1073407248 MinMC=     198.
 After Ints           Mon Dec 15 11:21:57 2014        0.00 cpu,        0.00 elapsed
 After FocIrr         Mon Dec 15 11:21:57 2014        0.00 cpu,        0.00 elapsed
 After DenIrr         Mon Dec 15 11:21:57 2014        0.00 cpu,        0.00 elapsed
 CoulSu:  IncDef=  1024 NBBP=          62500 NTPThr=   100 NPartT=    1 Incr=         625 LDynOK=F.
 CoulSu:  NPrtUS=   1 ThrOK=F IAlg=1 NPAlg=1 LenDen=           0 LWGrdD=           0 DoCopy=F.
 Top of PrismC.       Mon Dec 15 11:21:57 2014        0.00 cpu,        0.00 elapsed
 PrismC:  IPart=     0 DynPar=F LinDyn=F Incr=         625 UseFst=F UseS4=T IGathr=2.
 End of PrismC.       Mon Dec 15 11:21:57 2014        0.01 cpu,        0.00 elapsed
 CoulSu:  NxtVal=            626 LenVP=     1073398754 MinMC=     178.
 After Ints           Mon Dec 15 11:21:57 2014        0.00 cpu,        0.00 elapsed
 After FocIrr         Mon Dec 15 11:21:57 2014        0.00 cpu,        0.00 elapsed
 After CoulSu         Mon Dec 15 11:21:57 2014        0.00 cpu,        0.00 elapsed
 After HarFok/FofCou  Mon Dec 15 11:21:57 2014        0.00 cpu,        0.00 elapsed
 Bot of HarFok.       Mon Dec 15 11:21:57 2014        0.00 cpu,        0.00 elapsed
 GetMO/Sft            Mon Dec 15 11:21:57 2014        0.00 cpu,        0.01 elapsed
 GetMO/DiagDS         Mon Dec 15 11:21:58 2014        0.03 cpu,        0.03 elapsed
 GetMO                Mon Dec 15 11:21:58 2014        0.00 cpu,        0.00 elapsed
 Harris En= -130.179798422762    
 Make guess           Mon Dec 15 11:21:58 2014        0.00 cpu,        0.00 elapsed
 Modify guess         Mon Dec 15 11:21:58 2014        0.00 cpu,        0.00 elapsed
 JPrj=0 DoOrth=F DoCkMO=F.
 Before Post          Mon Dec 15 11:21:58 2014        0.00 cpu,        0.00 elapsed
 After Post1          Mon Dec 15 11:21:58 2014        0.00 cpu,        0.00 elapsed
 Form P               Mon Dec 15 11:21:58 2014        0.00 cpu,        0.00 elapsed
 Aft Post2            Mon Dec 15 11:21:58 2014        0.00 cpu,        0.00 elapsed
 Make files           Mon Dec 15 11:21:58 2014        0.00 cpu,        0.00 elapsed
 Leave Link  401 at Mon Dec 15 11:21:58 2014, MaxMem=  1073741824 cpu:              23.5 elap:              23.5
 (Enter /home1/gaussian/gdv/H36/gdv/l502.exe)
 Top of link  502.    Mon Dec 15 11:21:58 2014        0.00 cpu,        0.00 elapsed
 Keep R1 ints in memory in canonical form, NReq=500117832.
 FoFCou: FMM=F IPFlag=           0 FMFlag=           0 FMFlg1=           0
         NFxFlg=           0 DoJE=F BraDBF=F KetDBF=F FulRan=T
         wScrn=  0.000000 ICntrl=       600 IOpCl=  0 I1Cent=           0 NGrid=           0
         NMat0=    1 NMatS0=  31375 NMatT0=    0 NMatD0=    1 NMtDS0=    0 NMtDT0=    0
 Symmetry not used in FoFCou.
 ShPair: Thresh= 1.00D-10 NBox=     6 BxSize= 2.55D+01 RnKept= 1.75D+01
         NSMCal=                31375 NSMKep=               12811
 After ShPair         Mon Dec 15 11:21:59 2014        1.42 cpu,        1.43 elapsed
 After ShPSch         Mon Dec 15 11:21:59 2014        0.01 cpu,        0.01 elapsed
 After FMMEnt         Mon Dec 15 11:21:59 2014        0.00 cpu,        0.00 elapsed
 After BoxK           Mon Dec 15 11:21:59 2014        0.00 cpu,        0.00 elapsed
 CoulSu:  IncDef=  1024 NBBP=       82067266 NTPThr=   100 NPartT=    1 Incr=        1024 LDynOK=F.
 CoulSu:  NPrtUS=   1 ThrOK=F IAlg=1 NPAlg=1 LenDen=           0 LWGrdD=           0 DoCopy=F.
 Top of PrismC.       Mon Dec 15 11:21:59 2014        0.00 cpu,        0.00 elapsed
 PrismC:  IPart=     0 DynPar=F LinDyn=F Incr=        1024 UseFst=F UseS4=T IGathr=1.
 End of PrismC.       Mon Dec 15 11:22:25 2014       26.28 cpu,       26.31 elapsed
 CoulSu:  NxtVal=           1025 LenVP=      580455804 MinMC=     242.
 After CoulSu         Mon Dec 15 11:22:25 2014        0.00 cpu,        0.00 elapsed
 Top of RegRaf.       Mon Dec 15 11:22:26 2014        0.43 cpu,        0.43 elapsed
 End of RegRaf.       Mon Dec 15 11:22:30 2014        3.93 cpu,        3.93 elapsed
 After RegRaf         Mon Dec 15 11:22:30 2014        0.00 cpu,        0.00 elapsed
 Two-electron integral symmetry not used.
 Closed shell SCF:
 Using DIIS extrapolation, IDIIS=  1040.
 NGot=  1073741824 LenX=   581402419 LenY=   581339478
 Requested convergence on RMS density matrix=1.00D-08 within 128 cycles.
 Requested convergence on MAX density matrix=1.00D-06.
 Requested convergence on             energy=1.00D-06.
 No special actions if energy rises.

 Start of iteration.  Mon Dec 15 11:22:30 2014        0.00 cpu,        0.00 elapsed
 Cycle   1  Pass 1  IDiag  1:
 After PChk2N.        Mon Dec 15 11:22:30 2014        0.00 cpu,        0.00 elapsed
 Before 2e terms.     Mon Dec 15 11:22:30 2014        0.00 cpu,        0.00 elapsed
 Top of FoFMem.       Mon Dec 15 11:22:30 2014        0.00 cpu,        0.00 elapsed
 End of FoFMem.       Mon Dec 15 11:22:30 2014        0.60 cpu,        0.59 elapsed
 After 2e             Mon Dec 15 11:22:30 2014        0.00 cpu,        0.00 elapsed
 E= -112.805962284473    
 DIIS: error= 1.04D-02 at cycle   1 NSaved=   1.
 NSaved= 1 IEnMin= 1 EnMin= -112.805962284473     IErMin= 1 ErrMin= 1.04D-02
 ErrMax= 1.04D-02  0.00D+00 EMaxC= 1.00D-01 BMatC= 4.88D-02 BMatP= 4.88D-02
 IDIUse=3 WtCom= 8.96D-01 WtEn= 1.04D-01
 Coeff-Com:  0.100D+01
 Coeff-En:   0.100D+01
 Coeff:      0.100D+01
 After DIIS           Mon Dec 15 11:22:30 2014        0.01 cpu,        0.01 elapsed
 Top of DgFock.       Mon Dec 15 11:22:30 2014        0.00 cpu,        0.00 elapsed
 Gap=     0.066 Goal=   None    Shift=    0.000
 End of DgFock.       Mon Dec 15 11:22:30 2014        0.04 cpu,        0.04 elapsed
 End of iteration.    Mon Dec 15 11:22:30 2014        0.00 cpu,        0.00 elapsed
 GapD=    0.066 DampG=0.500 DampE=0.500 DampFc=0.2500 IDamp=-1.
 Damping current iteration by 2.50D-01
 RMSDP=6.31D-03 MaxDP=6.88D-02              OVMax= 0.00D+00

 Start of iteration.  Mon Dec 15 11:22:30 2014        0.00 cpu,        0.00 elapsed
 Cycle   2  Pass 1  IDiag  1:
 After PChk2N.        Mon Dec 15 11:22:30 2014        0.00 cpu,        0.00 elapsed
 Before 2e terms.     Mon Dec 15 11:22:30 2014        0.00 cpu,        0.00 elapsed
 Top of FoFMem.       Mon Dec 15 11:22:30 2014        0.00 cpu,        0.00 elapsed
 End of FoFMem.       Mon Dec 15 11:22:31 2014        0.59 cpu,        0.59 elapsed
[...]
 Coeff-Com: -0.759D+00-0.320D+00 0.666D+00 0.391D-01 0.236D+00 0.136D+00
 Coeff-Com: -0.139D+01 0.237D+01
 Coeff:      0.178D-01 0.317D-01-0.318D-01 0.200D+00-0.270D+00 0.369D-01
 Coeff:      0.686D-02 0.248D+00-0.254D+00 0.509D-01-0.349D-01 0.251D-01
 Coeff:     -0.759D+00-0.320D+00 0.666D+00 0.391D-01 0.236D+00 0.136D+00
 Coeff:     -0.139D+01 0.237D+01
 After DIIS           Mon Dec 15 11:23:46 2014        0.01 cpu,        0.02 elapsed
 Top of DgFock.       Mon Dec 15 11:23:46 2014        0.00 cpu,        0.00 elapsed
 Gap=     0.075 Goal=   None    Shift=    0.000
 End of DgFock.       Mon Dec 15 11:23:46 2014        0.04 cpu,        0.04 elapsed
 End of iteration.    Mon Dec 15 11:23:46 2014        0.00 cpu,        0.00 elapsed
 RMSDP=1.79D-04 MaxDP=1.87D-03 DE=-3.55D-06 OVMax= 0.00D+00

 Start of iteration.  Mon Dec 15 11:23:46 2014        0.00 cpu,        0.00 elapsed
 Cycle 119  Pass 1  IDiag  1:
 After PChk2N.        Mon Dec 15 11:23:46 2014        0.00 cpu,        0.00 elapsed
 Before 2e terms.     Mon Dec 15 11:23:46 2014        0.00 cpu,        0.00 elapsed
 Top of FoFMem.       Mon Dec 15 11:23:46 2014        0.00 cpu,        0.00 elapsed
 End of FoFMem.       Mon Dec 15 11:23:47 2014        0.59 cpu,        0.59 elapsed
 After 2e             Mon Dec 15 11:23:47 2014        0.00 cpu,        0.00 elapsed
 E= -113.011839962883     Delta-E=       -0.000010707064 Rises=F Damp=F
 DIIS: error= 2.70D-05 at cycle 119 NSaved=  20.
 NSaved=20 IEnMin= 4 EnMin= -113.015134969101     IErMin=19 ErrMin= 2.28D-05
 ErrMax= 2.70D-05  0.00D+00 EMaxC= 1.00D-01 BMatC= 2.10D-07 BMatP= 2.59D-07
 IDIUse=1 WtCom= 1.00D+00 WtEn= 0.00D+00
 Coeff-Com:  0.272D-02 0.278D-02-0.419D-01 0.246D+00-0.250D+00 0.242D-01
 Coeff-Com:  0.911D-02 0.298D+00-0.273D+00 0.201D-01-0.415D-01-0.684D+00
 Coeff-Com: -0.682D+00 0.579D+00 0.632D+00-0.387D-02 0.461D-02 0.119D+00
 Coeff-Com:  0.260D+00 0.778D+00
 Coeff:      0.272D-02 0.278D-02-0.419D-01 0.246D+00-0.250D+00 0.242D-01
 Coeff:      0.911D-02 0.298D+00-0.273D+00 0.201D-01-0.415D-01-0.684D+00
 Coeff:     -0.682D+00 0.579D+00 0.632D+00-0.387D-02 0.461D-02 0.119D+00
 Coeff:      0.260D+00 0.778D+00
 After DIIS           Mon Dec 15 11:23:47 2014        0.03 cpu,        0.02 elapsed
 Top of DgFock.       Mon Dec 15 11:23:47 2014        0.00 cpu,        0.00 elapsed
 Gap=     0.075 Goal=   None    Shift=    0.000
 End of DgFock.       Mon Dec 15 11:23:47 2014        0.04 cpu,        0.04 elapsed
 End of iteration.    Mon Dec 15 11:23:47 2014        0.00 cpu,        0.00 elapsed
 RMSDP=1.13D-04 MaxDP=1.14D-03 DE=-1.07D-05 OVMax= 0.00D+00

 Start of iteration.  Mon Dec 15 11:23:47 2014        0.00 cpu,        0.00 elapsed
 Cycle 120  Pass 1  IDiag  1:
 After PChk2N.        Mon Dec 15 11:23:47 2014        0.00 cpu,        0.00 elapsed
 Before 2e terms.     Mon Dec 15 11:23:47 2014        0.00 cpu,        0.00 elapsed
 Top of FoFMem.       Mon Dec 15 11:23:47 2014        0.00 cpu,        0.00 elapsed
 End of FoFMem.       Mon Dec 15 11:23:48 2014        0.59 cpu,        0.59 elapsed
 After 2e             Mon Dec 15 11:23:48 2014        0.00 cpu,        0.00 elapsed
 E= -113.011837757128     Delta-E=        0.000002205754 Rises=F Damp=F
 DIIS: error= 2.66D-05 at cycle 120 NSaved=  20.
 NSaved=20 IEnMin= 4 EnMin= -113.015134969101     IErMin=20 ErrMin= 2.66D-05
 ErrMax= 2.66D-05  0.00D+00 EMaxC= 1.00D-01 BMatC= 1.74D-07 BMatP= 2.10D-07
 IDIUse=1 WtCom= 1.00D+00 WtEn= 0.00D+00
 Coeff-Com:  0.753D-02-0.619D-02-0.416D-01 0.115D-01-0.502D-02 0.250D-01
 Coeff-Com:  0.151D-01 0.143D+00-0.150D+00 0.327D-01-0.292D-01-0.123D+01
 Coeff-Com: -0.653D+00 0.126D+01 0.405D+00 0.836D-01 0.806D-02 0.421D-02
 Coeff-Com:  0.503D+00 0.611D+00
 Coeff:      0.753D-02-0.619D-02-0.416D-01 0.115D-01-0.502D-02 0.250D-01
 Coeff:      0.151D-01 0.143D+00-0.150D+00 0.327D-01-0.292D-01-0.123D+01
 Coeff:     -0.653D+00 0.126D+01 0.405D+00 0.836D-01 0.806D-02 0.421D-02
 Coeff:      0.503D+00 0.611D+00
 After DIIS           Mon Dec 15 11:23:48 2014        0.01 cpu,        0.02 elapsed
 Top of DgFock.       Mon Dec 15 11:23:48 2014        0.00 cpu,        0.00 elapsed
 Gap=     0.075 Goal=   None    Shift=    0.000
 End of DgFock.       Mon Dec 15 11:23:48 2014        0.04 cpu,        0.04 elapsed
 End of iteration.    Mon Dec 15 11:23:48 2014        0.00 cpu,        0.00 elapsed
 RMSDP=1.45D-04 MaxDP=1.24D-03 DE= 2.21D-06 OVMax= 0.00D+00

 Start of iteration.  Mon Dec 15 11:23:48 2014        0.00 cpu,        0.00 elapsed
 Cycle 121  Pass 1  IDiag  1:
 After PChk2N.        Mon Dec 15 11:23:48 2014        0.00 cpu,        0.00 elapsed
 Before 2e terms.     Mon Dec 15 11:23:48 2014        0.00 cpu,        0.00 elapsed
 Top of FoFMem.       Mon Dec 15 11:23:48 2014        0.00 cpu,        0.00 elapsed
 End of FoFMem.       Mon Dec 15 11:23:48 2014        0.59 cpu,        0.59 elapsed
 After 2e             Mon Dec 15 11:23:48 2014        0.00 cpu,        0.00 elapsed
 E= -113.011835422170     Delta-E=        0.000002334958 Rises=F Damp=F
 DIIS: error= 2.39D-05 at cycle 121 NSaved=  20.
 NSaved=20 IEnMin= 4 EnMin= -113.015134969101     IErMin=20 ErrMin= 2.39D-05
 ErrMax= 2.39D-05  0.00D+00 EMaxC= 1.00D-01 BMatC= 1.39D-07 BMatP= 1.74D-07
 IDIUse=1 WtCom= 1.00D+00 WtEn= 0.00D+00
 Coeff-Com:  0.384D-02-0.291D-01-0.588D-01-0.335D-01 0.122D+00-0.773D-02
 Coeff-Com:  0.220D-01-0.143D+00 0.944D-01 0.468D-01-0.116D-01-0.165D+01
 Coeff-Com: -0.566D+00 0.176D+01 0.492D+00 0.138D+00-0.279D+00-0.650D-02
 Coeff-Com:  0.271D+00 0.839D+00
 Coeff:      0.384D-02-0.291D-01-0.588D-01-0.335D-01 0.122D+00-0.773D-02
 Coeff:      0.220D-01-0.143D+00 0.944D-01 0.468D-01-0.116D-01-0.165D+01
 Coeff:     -0.566D+00 0.176D+01 0.492D+00 0.138D+00-0.279D+00-0.650D-02
 Coeff:      0.271D+00 0.839D+00
 After DIIS           Mon Dec 15 11:23:48 2014        0.03 cpu,        0.02 elapsed
 Top of DgFock.       Mon Dec 15 11:23:48 2014        0.00 cpu,        0.00 elapsed
 Gap=     0.075 Goal=   None    Shift=    0.000
 End of DgFock.       Mon Dec 15 11:23:48 2014        0.04 cpu,        0.04 elapsed
 End of iteration.    Mon Dec 15 11:23:48 2014        0.00 cpu,        0.00 elapsed
 RMSDP=1.67D-04 MaxDP=1.55D-03 DE= 2.33D-06 OVMax= 0.00D+00

 Start of iteration.  Mon Dec 15 11:23:48 2014        0.00 cpu,        0.00 elapsed
 Cycle 122  Pass 1  IDiag  1:
 After PChk2N.        Mon Dec 15 11:23:48 2014        0.00 cpu,        0.00 elapsed
 Before 2e terms.     Mon Dec 15 11:23:48 2014        0.00 cpu,        0.00 elapsed
 Top of FoFMem.       Mon Dec 15 11:23:48 2014        0.00 cpu,        0.00 elapsed
 End of FoFMem.       Mon Dec 15 11:23:49 2014        0.59 cpu,        0.59 elapsed
 After 2e             Mon Dec 15 11:23:49 2014        0.00 cpu,        0.00 elapsed
 E= -113.011833208762     Delta-E=        0.000002213409 Rises=F Damp=F
 DIIS: error= 2.12D-05 at cycle 122 NSaved=  20.
 NSaved=20 IEnMin= 4 EnMin= -113.015134969101     IErMin=20 ErrMin= 2.12D-05
 ErrMax= 2.12D-05  0.00D+00 EMaxC= 1.00D-01 BMatC= 1.12D-07 BMatP= 1.39D-07
 IDIUse=1 WtCom= 1.00D+00 WtEn= 0.00D+00
 Coeff-Com: -0.268D-02-0.361D-01-0.620D-01-0.802D-01 0.199D+00-0.223D-01
 Coeff-Com:  0.283D-01-0.218D+00 0.162D+00 0.401D-01-0.543D-02-0.154D+01
 Coeff-Com: -0.407D+00 0.180D+01 0.351D+00 0.966D-01-0.370D+00-0.120D-01
 Coeff-Com:  0.491D+00 0.589D+00
 Coeff:     -0.268D-02-0.361D-01-0.620D-01-0.802D-01 0.199D+00-0.223D-01
 Coeff:      0.283D-01-0.218D+00 0.162D+00 0.401D-01-0.543D-02-0.154D+01
 Coeff:     -0.407D+00 0.180D+01 0.351D+00 0.966D-01-0.370D+00-0.120D-01
 Coeff:      0.491D+00 0.589D+00
 After DIIS           Mon Dec 15 11:23:49 2014        0.01 cpu,        0.02 elapsed
 Top of DgFock.       Mon Dec 15 11:23:49 2014        0.00 cpu,        0.00 elapsed
 Gap=     0.075 Goal=   None    Shift=    0.000
 End of DgFock.       Mon Dec 15 11:23:49 2014        0.04 cpu,        0.04 elapsed
 End of iteration.    Mon Dec 15 11:23:49 2014        0.00 cpu,        0.00 elapsed
 RMSDP=7.89D-05 MaxDP=8.16D-04 DE= 2.21D-06 OVMax= 0.00D+00

 Start of iteration.  Mon Dec 15 11:23:49 2014        0.00 cpu,        0.00 elapsed
 Cycle 123  Pass 1  IDiag  1:
 After PChk2N.        Mon Dec 15 11:23:49 2014        0.00 cpu,        0.00 elapsed
 Before 2e terms.     Mon Dec 15 11:23:49 2014        0.00 cpu,        0.00 elapsed
 Top of FoFMem.       Mon Dec 15 11:23:49 2014        0.00 cpu,        0.00 elapsed
 End of FoFMem.       Mon Dec 15 11:23:50 2014        0.59 cpu,        0.59 elapsed
 After 2e             Mon Dec 15 11:23:50 2014        0.00 cpu,        0.00 elapsed
 E= -113.011832629049     Delta-E=        0.000000579713 Rises=F Damp=F
 DIIS: error= 1.85D-05 at cycle 123 NSaved=  20.
 NSaved=20 IEnMin= 4 EnMin= -113.015134969101     IErMin=20 ErrMin= 1.85D-05
 ErrMax= 1.85D-05  0.00D+00 EMaxC= 1.00D-01 BMatC= 1.01D-07 BMatP= 1.12D-07
 IDIUse=1 WtCom= 1.00D+00 WtEn= 0.00D+00
 Coeff-Com: -0.289D-02-0.283D-01-0.611D-01-0.239D-01 0.144D+00-0.286D-01
 Coeff-Com:  0.244D-01-0.310D+00 0.241D+00 0.464D-01 0.433D-02-0.804D+00
 Coeff-Com: -0.137D+00 0.118D+01 0.472D-01 0.298D-01-0.394D+00 0.285D-01
 Coeff-Com:  0.417D+00 0.627D+00
 Coeff:     -0.289D-02-0.283D-01-0.611D-01-0.239D-01 0.144D+00-0.286D-01
 Coeff:      0.244D-01-0.310D+00 0.241D+00 0.464D-01 0.433D-02-0.804D+00
 Coeff:     -0.137D+00 0.118D+01 0.472D-01 0.298D-01-0.394D+00 0.285D-01
 Coeff:      0.417D+00 0.627D+00
 After DIIS           Mon Dec 15 11:23:50 2014        0.03 cpu,        0.02 elapsed
 Top of DgFock.       Mon Dec 15 11:23:50 2014        0.00 cpu,        0.00 elapsed
 Gap=     0.075 Goal=   None    Shift=    0.000
 End of DgFock.       Mon Dec 15 11:23:50 2014        0.03 cpu,        0.04 elapsed
 End of iteration.    Mon Dec 15 11:23:50 2014        0.00 cpu,        0.00 elapsed
 RMSDP=6.46D-05 MaxDP=7.25D-04 DE= 5.80D-07 OVMax= 0.00D+00

 Start of iteration.  Mon Dec 15 11:23:50 2014        0.00 cpu,        0.00 elapsed
 Cycle 124  Pass 1  IDiag  1:
 After PChk2N.        Mon Dec 15 11:23:50 2014        0.00 cpu,        0.00 elapsed
 Before 2e terms.     Mon Dec 15 11:23:50 2014        0.00 cpu,        0.00 elapsed
 Top of FoFMem.       Mon Dec 15 11:23:50 2014        0.00 cpu,        0.00 elapsed
 End of FoFMem.       Mon Dec 15 11:23:50 2014        0.60 cpu,        0.59 elapsed
 After 2e             Mon Dec 15 11:23:50 2014        0.00 cpu,        0.00 elapsed
 E= -113.011832296816     Delta-E=        0.000000332233 Rises=F Damp=F
 DIIS: error= 1.61D-05 at cycle 124 NSaved=  20.
 NSaved=20 IEnMin= 4 EnMin= -113.015134969101     IErMin=20 ErrMin= 1.61D-05
 ErrMax= 1.61D-05  0.00D+00 EMaxC= 1.00D-01 BMatC= 9.25D-08 BMatP= 1.01D-07
 IDIUse=1 WtCom= 1.00D+00 WtEn= 0.00D+00
 Coeff-Com: -0.789D-02-0.233D-01-0.523D-01 0.123D+00-0.129D-01-0.278D-01
 Coeff-Com:  0.167D-01-0.258D+00 0.208D+00 0.344D-01 0.914D-03-0.173D+00
 Coeff-Com:  0.553D-01 0.742D+00-0.210D+00-0.388D-01-0.408D+00 0.297D-02
 Coeff-Com:  0.220D+00 0.808D+00
 Coeff:     -0.789D-02-0.233D-01-0.523D-01 0.123D+00-0.129D-01-0.278D-01
 Coeff:      0.167D-01-0.258D+00 0.208D+00 0.344D-01 0.914D-03-0.173D+00
 Coeff:      0.553D-01 0.742D+00-0.210D+00-0.388D-01-0.408D+00 0.297D-02
 Coeff:      0.220D+00 0.808D+00
 After DIIS           Mon Dec 15 11:23:50 2014        0.01 cpu,        0.02 elapsed
 Top of DgFock.       Mon Dec 15 11:23:50 2014        0.00 cpu,        0.00 elapsed
 Gap=     0.075 Goal=   None    Shift=    0.000
 End of DgFock.       Mon Dec 15 11:23:50 2014        0.04 cpu,        0.04 elapsed
 End of iteration.    Mon Dec 15 11:23:50 2014        0.00 cpu,        0.00 elapsed
 RMSDP=5.12D-05 MaxDP=5.90D-04 DE= 3.32D-07 OVMax= 0.00D+00

 Start of iteration.  Mon Dec 15 11:23:50 2014        0.00 cpu,        0.00 elapsed
 Cycle 125  Pass 1  IDiag  1:
 After PChk2N.        Mon Dec 15 11:23:50 2014        0.00 cpu,        0.00 elapsed
 Before 2e terms.     Mon Dec 15 11:23:50 2014        0.00 cpu,        0.00 elapsed
 Top of FoFMem.       Mon Dec 15 11:23:50 2014        0.00 cpu,        0.00 elapsed
 End of FoFMem.       Mon Dec 15 11:23:51 2014        0.59 cpu,        0.59 elapsed
 After 2e             Mon Dec 15 11:23:51 2014        0.00 cpu,        0.00 elapsed
 E= -113.011832124099     Delta-E=        0.000000172716 Rises=F Damp=F
 DIIS: error= 1.34D-05 at cycle 125 NSaved=  20.
 NSaved=20 IEnMin= 4 EnMin= -113.015134969101     IErMin=20 ErrMin= 1.34D-05
 ErrMax= 1.34D-05  0.00D+00 EMaxC= 1.00D-01 BMatC= 8.02D-08 BMatP= 9.25D-08
 IDIUse=1 WtCom= 1.00D+00 WtEn= 0.00D+00
 Coeff-Com: -0.502D-02-0.180D-01-0.435D-01 0.122D+00-0.393D-01-0.171D-01
 Coeff-Com:  0.135D-01-0.261D+00 0.213D+00 0.338D-01 0.366D-02 0.206D+00
 Coeff-Com:  0.168D+00 0.267D+00-0.330D+00-0.185D-01-0.304D+00-0.129D-01
 Coeff-Com:  0.435D+00 0.588D+00
 Coeff:     -0.502D-02-0.180D-01-0.435D-01 0.122D+00-0.393D-01-0.171D-01
 Coeff:      0.135D-01-0.261D+00 0.213D+00 0.338D-01 0.366D-02 0.206D+00
 Coeff:      0.168D+00 0.267D+00-0.330D+00-0.185D-01-0.304D+00-0.129D-01
 Coeff:      0.435D+00 0.588D+00
 After DIIS           Mon Dec 15 11:23:51 2014        0.03 cpu,        0.02 elapsed
 Top of DgFock.       Mon Dec 15 11:23:51 2014        0.00 cpu,        0.00 elapsed
 Gap=     0.075 Goal=   None    Shift=    0.000
 End of DgFock.       Mon Dec 15 11:23:51 2014        0.03 cpu,        0.04 elapsed
 End of iteration.    Mon Dec 15 11:23:51 2014        0.00 cpu,        0.00 elapsed
 RMSDP=3.72D-05 MaxDP=4.12D-04 DE= 1.73D-07 OVMax= 0.00D+00

 Start of iteration.  Mon Dec 15 11:23:51 2014        0.00 cpu,        0.00 elapsed
 Cycle 126  Pass 1  IDiag  1:
 After PChk2N.        Mon Dec 15 11:23:51 2014        0.00 cpu,        0.00 elapsed
 Before 2e terms.     Mon Dec 15 11:23:51 2014        0.00 cpu,        0.00 elapsed
 Top of FoFMem.       Mon Dec 15 11:23:51 2014        0.00 cpu,        0.00 elapsed
 End of FoFMem.       Mon Dec 15 11:23:51 2014        0.59 cpu,        0.59 elapsed
 After 2e             Mon Dec 15 11:23:51 2014        0.00 cpu,        0.00 elapsed
 E= -113.011832133542     Delta-E=       -0.000000009443 Rises=F Damp=F
 DIIS: error= 1.35D-05 at cycle 126 NSaved=  20.
 NSaved=20 IEnMin= 4 EnMin= -113.015134969101     IErMin=19 ErrMin= 1.34D-05
 ErrMax= 1.35D-05  0.00D+00 EMaxC= 1.00D-01 BMatC= 6.29D-08 BMatP= 8.02D-08
 IDIUse=1 WtCom= 1.00D+00 WtEn= 0.00D+00
 Coeff-Com: -0.309D-02-0.138D-01-0.326D-01 0.114D+00-0.519D-01-0.156D-01
 Coeff-Com:  0.119D-01-0.253D+00 0.210D+00 0.308D-01 0.351D-02 0.316D+00
 Coeff-Com:  0.179D+00-0.237D-01-0.207D+00 0.323D-01-0.263D+00-0.507D-01
 Coeff-Com:  0.178D+00 0.839D+00
 Coeff:     -0.309D-02-0.138D-01-0.326D-01 0.114D+00-0.519D-01-0.156D-01
 Coeff:      0.119D-01-0.253D+00 0.210D+00 0.308D-01 0.351D-02 0.316D+00
 Coeff:      0.179D+00-0.237D-01-0.207D+00 0.323D-01-0.263D+00-0.507D-01
 Coeff:      0.178D+00 0.839D+00
 After DIIS           Mon Dec 15 11:23:51 2014        0.02 cpu,        0.02 elapsed
 Top of DgFock.       Mon Dec 15 11:23:51 2014        0.00 cpu,        0.00 elapsed
 Gap=     0.075 Goal=   None    Shift=    0.000
 End of DgFock.       Mon Dec 15 11:23:52 2014        0.04 cpu,        0.04 elapsed
 End of iteration.    Mon Dec 15 11:23:52 2014        0.00 cpu,        0.00 elapsed
 RMSDP=4.56D-05 MaxDP=4.52D-04 DE=-9.44D-09 OVMax= 0.00D+00

 Start of iteration.  Mon Dec 15 11:23:52 2014        0.01 cpu,        0.00 elapsed
 Cycle 127  Pass 1  IDiag  1:
 After PChk2N.        Mon Dec 15 11:23:52 2014        0.00 cpu,        0.00 elapsed
 Before 2e terms.     Mon Dec 15 11:23:52 2014        0.00 cpu,        0.00 elapsed
 Top of FoFMem.       Mon Dec 15 11:23:52 2014        0.00 cpu,        0.00 elapsed
 End of FoFMem.       Mon Dec 15 11:23:52 2014        0.59 cpu,        0.59 elapsed
 After 2e             Mon Dec 15 11:23:52 2014        0.00 cpu,        0.00 elapsed
 E= -113.011831920058     Delta-E=        0.000000213484 Rises=F Damp=F
 DIIS: error= 1.34D-05 at cycle 127 NSaved=  20.
 NSaved=20 IEnMin= 4 EnMin= -113.015134969101     IErMin=20 ErrMin= 1.34D-05
 ErrMax= 1.34D-05  0.00D+00 EMaxC= 1.00D-01 BMatC= 5.94D-08 BMatP= 6.29D-08
 IDIUse=1 WtCom= 1.00D+00 WtEn= 0.00D+00
 Coeff-Com: -0.254D-02-0.136D-01-0.274D-01 0.997D-01-0.443D-01-0.160D-01
 Coeff-Com:  0.113D-01-0.274D+00 0.230D+00 0.306D-01 0.535D-02 0.298D+00
 Coeff-Com:  0.158D+00-0.217D+00 0.182D-01 0.605D-01-0.288D+00-0.447D-01
 Coeff-Com:  0.406D+00 0.610D+00
 Coeff:     -0.254D-02-0.136D-01-0.274D-01 0.997D-01-0.443D-01-0.160D-01
 Coeff:      0.113D-01-0.274D+00 0.230D+00 0.306D-01 0.535D-02 0.298D+00
 Coeff:      0.158D+00-0.217D+00 0.182D-01 0.605D-01-0.288D+00-0.447D-01
 Coeff:      0.406D+00 0.610D+00
 After DIIS           Mon Dec 15 11:23:52 2014        0.01 cpu,        0.02 elapsed
 Top of DgFock.       Mon Dec 15 11:23:52 2014        0.00 cpu,        0.00 elapsed
 Gap=     0.075 Goal=   None    Shift=    0.000
 End of DgFock.       Mon Dec 15 11:23:52 2014        0.04 cpu,        0.04 elapsed
 End of iteration.    Mon Dec 15 11:23:52 2014        0.00 cpu,        0.00 elapsed
 RMSDP=3.83D-05 MaxDP=3.56D-04 DE= 2.13D-07 OVMax= 0.00D+00

 Start of iteration.  Mon Dec 15 11:23:52 2014        0.00 cpu,        0.00 elapsed
 Cycle 128  Pass 1  IDiag  1:
 After PChk2N.        Mon Dec 15 11:23:52 2014        0.00 cpu,        0.00 elapsed
 Before 2e terms.     Mon Dec 15 11:23:52 2014        0.00 cpu,        0.00 elapsed
 Top of FoFMem.       Mon Dec 15 11:23:52 2014        0.00 cpu,        0.00 elapsed
 End of FoFMem.       Mon Dec 15 11:23:53 2014        0.59 cpu,        0.59 elapsed
 After 2e             Mon Dec 15 11:23:53 2014        0.00 cpu,        0.00 elapsed
 E= -113.011831532748     Delta-E=        0.000000387310 Rises=F Damp=F
 DIIS: error= 1.30D-05 at cycle 128 NSaved=  20.
 NSaved=20 IEnMin= 4 EnMin= -113.015134969101     IErMin=20 ErrMin= 1.30D-05
 ErrMax= 1.30D-05  0.00D+00 EMaxC= 1.00D-01 BMatC= 6.52D-08 BMatP= 5.94D-08
 IDIUse=1 WtCom= 1.00D+00 WtEn= 0.00D+00
 Coeff-Com: -0.194D-02-0.138D-01-0.273D-01 0.102D+00-0.495D-01-0.136D-01
 Coeff-Com:  0.106D-01-0.292D+00 0.245D+00 0.323D-01 0.709D-02 0.350D+00
 Coeff-Com:  0.162D+00-0.371D+00 0.997D-01 0.691D-01-0.289D+00-0.337D-01
 Coeff-Com:  0.130D+01-0.290D+00
 Coeff:     -0.194D-02-0.138D-01-0.273D-01 0.102D+00-0.495D-01-0.136D-01
 Coeff:      0.106D-01-0.292D+00 0.245D+00 0.323D-01 0.709D-02 0.350D+00
 Coeff:      0.162D+00-0.371D+00 0.997D-01 0.691D-01-0.289D+00-0.337D-01
 Coeff:      0.130D+01-0.290D+00
 After DIIS           Mon Dec 15 11:23:53 2014        0.03 cpu,        0.02 elapsed
 Top of DgFock.       Mon Dec 15 11:23:53 2014        0.00 cpu,        0.00 elapsed
 Gap=     0.075 Goal=   None    Shift=    0.000
 End of DgFock.       Mon Dec 15 11:23:53 2014        0.03 cpu,        0.04 elapsed
 End of iteration.    Mon Dec 15 11:23:53 2014        0.00 cpu,        0.00 elapsed
 RMSDP=6.64D-06 MaxDP=8.27D-05 DE= 3.87D-07 OVMax= 0.00D+00

 Start of iteration.  Mon Dec 15 11:23:53 2014        0.00 cpu,        0.00 elapsed
 >>>>>>>>>> Convergence criterion not met.
 After CycOpn         Mon Dec 15 11:23:53 2014        0.00 cpu,        0.00 elapsed
 After AbSyMO         Mon Dec 15 11:23:53 2014        0.00 cpu,        0.00 elapsed
 After Virial         Mon Dec 15 11:23:53 2014        0.00 cpu,        0.00 elapsed
 SCF Done:  E(RHF) =  -113.011831533     A.U. after  129 cycles
            NFock=128  Conv=0.66D-05     -V/T= 1.7230
 KE= 1.563033512631D+02 PE=-4.491184702508D+03 EE= 2.118697240574D+03
 After Annil          Mon Dec 15 11:23:53 2014        0.00 cpu,        0.00 elapsed
 Before W             Mon Dec 15 11:23:53 2014        0.00 cpu,        0.00 elapsed
 After W              Mon Dec 15 11:23:53 2014        0.01 cpu,        0.01 elapsed
 Convergence failure -- run terminated.
 Error termination via Lnk1e in /home1/gaussian/gdv/H36/gdv/l502.exe at Mon Dec 15 11:23:53 2014.
 Job cpu time:       0 days  0 hours  2 minutes 20.1 seconds.
 Elapsed time:       0 days  0 hours  2 minutes 20.2 seconds.
 File lengths (MBytes):  RWF=     28 Int=      0 D2E=      0 Chk=      2 Scr=      1
