 Entering Gaussian System, Link 0=gdv
 Input=benzene_cc-pVDZ_field.com
 Output=benzene_cc-pVDZ_field.log
 Initial command:
 /home/gauss/gdvi03p/gdv/l1.exe "/home/GauScr/Gau-10804.inp" -scrdir="/home/GauScr/"
 Entering Link 1 = /home/gauss/gdvi03p/gdv/l1.exe PID=     10805.
  
 Copyright (c) 1988,1990,1992,1993,1995,1998,2003,2009,2015,
            Gaussian, Inc.  All Rights Reserved.
  
 This is the private, development version of
 the Gaussian(R) DV system of programs. It is based on
 the Gaussian(R) 09 system (copyright 2009, Gaussian, Inc.),
 the Gaussian(R) 03 system (copyright 2003, Gaussian, Inc.),
 the Gaussian(R) 98 system (copyright 1998, Gaussian, Inc.),
 the Gaussian(R) 94 system (copyright 1995, Gaussian, Inc.),
 the Gaussian 92(TM) system (copyright 1992, Gaussian, Inc.),
 the Gaussian 90(TM) system (copyright 1990, Gaussian, Inc.),
 the Gaussian 88(TM) system (copyright 1988, Gaussian, Inc.),
 the Gaussian 86(TM) system (copyright 1986, Carnegie Mellon
 University), and the Gaussian 82(TM) system (copyright 1983,
 Carnegie Mellon University). Gaussian is a federally registered
 trademark of Gaussian, Inc.
  
 This software contains proprietary and confidential information,
 including trade secrets, belonging to Gaussian, Inc.
  
 This software is provided under written license and may be
 used, copied, transmitted, or stored only in accord with that
 written license.
  
 The following legend is applicable only to US Government
 contracts under FAR:
  
                    RESTRICTED RIGHTS LEGEND
  
 Use, reproduction and disclosure by the US Government is
 subject to restrictions as set forth in subparagraphs (a)
 and (c) of the Commercial Computer Software - Restricted
 Rights clause in FAR 52.227-19.
  
 Gaussian, Inc.
 340 Quinnipiac St., Bldg. 40, Wallingford CT 06492
  
  
 ---------------------------------------------------------------
 Warning -- This program may not be used in any manner that
 competes with the business of Gaussian, Inc. or will provide
 assistance to any competitor of Gaussian, Inc.  The licensee
 of this program is prohibited from giving any competitor of
 Gaussian, Inc. access to this program.  By using this program,
 the user acknowledges that Gaussian, Inc. is engaged in the
 business of creating and licensing software in the field of
 computational chemistry and represents and warrants to the
 licensee that it is not a competitor of Gaussian, Inc. and that
 it will not use this program in any manner prohibited above.
 ---------------------------------------------------------------
  

 Cite this work as:
 Gaussian Development Version, Revision I.03+,
 M. J. Frisch, G. W. Trucks, H. B. Schlegel, G. E. Scuseria, 
 M. A. Robb, J. R. Cheeseman, G. Scalmani, V. Barone, B. Mennucci, 
 G. A. Petersson, H. Nakatsuji, M. Caricato, X. Li, H. P. Hratchian, 
 J. Bloino, B. G. Janesko, A. F. Izmaylov, A. Marenich, F. Lipparini, 
 G. Zheng, J. L. Sonnenberg, W. Liang, M. Hada, M. Ehara, K. Toyota, 
 R. Fukuda, J. Hasegawa, M. Ishida, T. Nakajima, Y. Honda, O. Kitao, 
 H. Nakai, T. Vreven, K. Throssell, J. A. Montgomery, Jr., 
 J. E. Peralta, F. Ogliaro, M. Bearpark, J. J. Heyd, E. Brothers, 
 K. N. Kudin, V. N. Staroverov, T. Keith, R. Kobayashi, J. Normand, 
 K. Raghavachari, A. Rendell, J. C. Burant, S. S. Iyengar, J. Tomasi, 
 M. Cossi, N. Rega, J. M. Millam, M. Klene, J. E. Knox, J. B. Cross, 
 V. Bakken, C. Adamo, J. Jaramillo, R. Gomperts, R. E. Stratmann, 
 O. Yazyev, A. J. Austin, R. Cammi, C. Pomelli, J. W. Ochterski, 
 R. L. Martin, K. Morokuma, V. G. Zakrzewski, G. A. Voth, 
 P. Salvador, J. J. Dannenberg, S. Dapprich, P. V. Parandekar, 
 N. J. Mayhall, A. D. Daniels, O. Farkas, J. B. Foresman, 
 J. V. Ortiz, J. Cioslowski, and D. J. Fox, 
 Gaussian, Inc., Wallingford CT, 2014.
 
 *******************************************
 Gaussian DV:  ES64L-GDVRevI.03+  2-May-2015
                 26-Oct-2015 
 *******************************************
 ---------------------------------------------------
 # hf/cc-pVDZ gfinput pop=full nosymm 6D Field=X-100
 ---------------------------------------------------
 1/38=1,172=1/1;
 2/12=2,15=1,17=6,18=5,40=1/2;
 3/5=16,8=2,11=9,14=1,15=-100,24=10,25=1,30=1/1,2,3;
 4//1;
 5/5=2,38=5/2;
 6/7=3,28=1/1;
 99/5=1,9=1/99;
 ---------------
 Benzene cc-pVDZ
 ---------------
 Symbolic Z-matrix:
 Charge =  0 Multiplicity = 1
 C                    -0.20699  -0.18218   0.00007 
 C                     1.19167  -0.18235   0.0005 
 C                     1.89106   1.02887  -0.00007 
 C                     1.19173   2.24013  -0.00106 
 C                    -0.20692   2.24031  -0.00148 
 C                    -0.90631   1.02909  -0.00092 
 H                    -0.75075  -1.1239    0.00051 
 H                     1.73529  -1.12415   0.00127 
 H                     2.97848   1.02893   0.00027 
 H                     1.7355    3.18185  -0.0015 
 H                    -0.75054   3.1821   -0.00226 
 H                    -1.99373   1.02902  -0.00125 
 
                          Input orientation:                          
 ---------------------------------------------------------------------
 Center     Atomic      Atomic             Coordinates (Angstroms)
 Number     Number       Type             X           Y           Z
 ---------------------------------------------------------------------
      1          6           0       -0.206985   -0.182180    0.000071
      2          6           0        1.191674   -0.182353    0.000499
      3          6           0        1.891055    1.028868   -0.000066
      4          6           0        1.191735    2.240134   -0.001056
      5          6           0       -0.206924    2.240307   -0.001484
      6          6           0       -0.906306    1.029086   -0.000919
      7          1           0       -0.750746   -1.123896    0.000510
      8          1           0        1.735285   -1.124149    0.001271
      9          1           0        2.978478    1.028934    0.000267
     10          1           0        1.735496    3.181849   -0.001495
     11          1           0       -0.750536    3.182103   -0.002255
     12          1           0       -1.993729    1.029020   -0.001252
 ---------------------------------------------------------------------
                    Distance matrix (angstroms):
                    1          2          3          4          5
     1  C    0.000000
     2  C    1.398659   0.000000
     3  C    2.422480   1.398639   0.000000
     4  C    2.797145   2.422487   1.398648   0.000000
     5  C    2.422487   2.797385   2.422623   1.398659   0.000000
     6  C    1.398648   2.422623   2.797361   2.422480   1.398639
     7  H    1.087430   2.158587   3.407859   3.884576   3.407874
     8  H    2.158639   1.087425   2.158645   3.407910   3.884810
     9  H    3.407928   2.158677   1.087423   2.158578   3.407964
    10  H    3.884576   3.407874   2.158595   1.087430   2.158587
    11  H    3.407910   3.884810   3.407995   2.158639   1.087425
    12  H    2.158578   3.407964   3.884784   3.407928   2.158677
                    6          7          8          9         10
     6  C    0.000000
     7  H    2.158595   0.000000
     8  H    3.407995   2.486032   0.000000
     9  H    3.884784   4.306018   2.486221   0.000000
    10  H    3.407859   4.972006   4.306000   2.485971   0.000000
    11  H    2.158645   4.306000   4.972236   4.306006   2.486032
    12  H    1.087423   2.485971   4.306006   4.972207   4.306018
                   11         12
    11  H    0.000000
    12  H    2.486221   0.000000
 Symmetry turned off by external request.
 Stoichiometry    C6H6
 Framework group  CI[X(C6H6)]
 Deg. of freedom    15
 Full point group                 CI      NOp   2
 Rotational constants (GHZ):      5.6717105      5.6710222      2.8356832
 Standard basis: CC-pVDZ (6D, 7F)
 The following finite field(s) will be applied:
 An electric field of             -0.0100  0.0000  0.0000
 AO basis set in the form of general basis input (Overlap normalization):
      1 0
 S   7 1.00       0.000000000000
      0.6665000000D+04  0.6935163173D-03
      0.1000000000D+04  0.5341502433D-02
      0.2280000000D+03  0.2713667141D-01
      0.6471000000D+02  0.1019923853D+00
      0.2106000000D+02  0.2755086365D+00
      0.7495000000D+01  0.4510864331D+00
      0.2797000000D+01  0.2875657448D+00
 S   7 1.00       0.000000000000
      0.6665000000D+04  0.7733547404D-05
      0.2280000000D+03  0.2780721367D-03
      0.6471000000D+02 -0.2578756542D-02
      0.2106000000D+02 -0.8950876838D-02
      0.7495000000D+01 -0.1060588547D+00
      0.2797000000D+01 -0.1315176856D+00
      0.5215000000D+00  0.1099486598D+01
 S   1 1.00       0.000000000000
      0.1596000000D+00  0.1000000000D+01
 P   3 1.00       0.000000000000
      0.9439000000D+01  0.5697925159D-01
      0.2002000000D+01  0.3132072115D+00
      0.5456000000D+00  0.7603767417D+00
 P   1 1.00       0.000000000000
      0.1517000000D+00  0.1000000000D+01
 D   1 1.00       0.000000000000
      0.5500000000D+00  0.1000000000D+01
 ****
      2 0
 S   7 1.00       0.000000000000
      0.6665000000D+04  0.6935163173D-03
      0.1000000000D+04  0.5341502433D-02
      0.2280000000D+03  0.2713667141D-01
      0.6471000000D+02  0.1019923853D+00
      0.2106000000D+02  0.2755086365D+00
      0.7495000000D+01  0.4510864331D+00
      0.2797000000D+01  0.2875657448D+00
 S   7 1.00       0.000000000000
      0.6665000000D+04  0.7733547404D-05
      0.2280000000D+03  0.2780721367D-03
      0.6471000000D+02 -0.2578756542D-02
      0.2106000000D+02 -0.8950876838D-02
      0.7495000000D+01 -0.1060588547D+00
      0.2797000000D+01 -0.1315176856D+00
      0.5215000000D+00  0.1099486598D+01
 S   1 1.00       0.000000000000
      0.1596000000D+00  0.1000000000D+01
 P   3 1.00       0.000000000000
      0.9439000000D+01  0.5697925159D-01
      0.2002000000D+01  0.3132072115D+00
      0.5456000000D+00  0.7603767417D+00
 P   1 1.00       0.000000000000
      0.1517000000D+00  0.1000000000D+01
 D   1 1.00       0.000000000000
      0.5500000000D+00  0.1000000000D+01
 ****
      3 0
 S   7 1.00       0.000000000000
      0.6665000000D+04  0.6935163173D-03
      0.1000000000D+04  0.5341502433D-02
      0.2280000000D+03  0.2713667141D-01
      0.6471000000D+02  0.1019923853D+00
      0.2106000000D+02  0.2755086365D+00
      0.7495000000D+01  0.4510864331D+00
      0.2797000000D+01  0.2875657448D+00
 S   7 1.00       0.000000000000
      0.6665000000D+04  0.7733547404D-05
      0.2280000000D+03  0.2780721367D-03
      0.6471000000D+02 -0.2578756542D-02
      0.2106000000D+02 -0.8950876838D-02
      0.7495000000D+01 -0.1060588547D+00
      0.2797000000D+01 -0.1315176856D+00
      0.5215000000D+00  0.1099486598D+01
 S   1 1.00       0.000000000000
      0.1596000000D+00  0.1000000000D+01
 P   3 1.00       0.000000000000
      0.9439000000D+01  0.5697925159D-01
      0.2002000000D+01  0.3132072115D+00
      0.5456000000D+00  0.7603767417D+00
 P   1 1.00       0.000000000000
      0.1517000000D+00  0.1000000000D+01
 D   1 1.00       0.000000000000
      0.5500000000D+00  0.1000000000D+01
 ****
      4 0
 S   7 1.00       0.000000000000
      0.6665000000D+04  0.6935163173D-03
      0.1000000000D+04  0.5341502433D-02
      0.2280000000D+03  0.2713667141D-01
      0.6471000000D+02  0.1019923853D+00
      0.2106000000D+02  0.2755086365D+00
      0.7495000000D+01  0.4510864331D+00
      0.2797000000D+01  0.2875657448D+00
 S   7 1.00       0.000000000000
      0.6665000000D+04  0.7733547404D-05
      0.2280000000D+03  0.2780721367D-03
      0.6471000000D+02 -0.2578756542D-02
      0.2106000000D+02 -0.8950876838D-02
      0.7495000000D+01 -0.1060588547D+00
      0.2797000000D+01 -0.1315176856D+00
      0.5215000000D+00  0.1099486598D+01
 S   1 1.00       0.000000000000
      0.1596000000D+00  0.1000000000D+01
 P   3 1.00       0.000000000000
      0.9439000000D+01  0.5697925159D-01
      0.2002000000D+01  0.3132072115D+00
      0.5456000000D+00  0.7603767417D+00
 P   1 1.00       0.000000000000
      0.1517000000D+00  0.1000000000D+01
 D   1 1.00       0.000000000000
      0.5500000000D+00  0.1000000000D+01
 ****
      5 0
 S   7 1.00       0.000000000000
      0.6665000000D+04  0.6935163173D-03
      0.1000000000D+04  0.5341502433D-02
      0.2280000000D+03  0.2713667141D-01
      0.6471000000D+02  0.1019923853D+00
      0.2106000000D+02  0.2755086365D+00
      0.7495000000D+01  0.4510864331D+00
      0.2797000000D+01  0.2875657448D+00
 S   7 1.00       0.000000000000
      0.6665000000D+04  0.7733547404D-05
      0.2280000000D+03  0.2780721367D-03
      0.6471000000D+02 -0.2578756542D-02
      0.2106000000D+02 -0.8950876838D-02
      0.7495000000D+01 -0.1060588547D+00
      0.2797000000D+01 -0.1315176856D+00
      0.5215000000D+00  0.1099486598D+01
 S   1 1.00       0.000000000000
      0.1596000000D+00  0.1000000000D+01
 P   3 1.00       0.000000000000
      0.9439000000D+01  0.5697925159D-01
      0.2002000000D+01  0.3132072115D+00
      0.5456000000D+00  0.7603767417D+00
 P   1 1.00       0.000000000000
      0.1517000000D+00  0.1000000000D+01
 D   1 1.00       0.000000000000
      0.5500000000D+00  0.1000000000D+01
 ****
      6 0
 S   7 1.00       0.000000000000
      0.6665000000D+04  0.6935163173D-03
      0.1000000000D+04  0.5341502433D-02
      0.2280000000D+03  0.2713667141D-01
      0.6471000000D+02  0.1019923853D+00
      0.2106000000D+02  0.2755086365D+00
      0.7495000000D+01  0.4510864331D+00
      0.2797000000D+01  0.2875657448D+00
 S   7 1.00       0.000000000000
      0.6665000000D+04  0.7733547404D-05
      0.2280000000D+03  0.2780721367D-03
      0.6471000000D+02 -0.2578756542D-02
      0.2106000000D+02 -0.8950876838D-02
      0.7495000000D+01 -0.1060588547D+00
      0.2797000000D+01 -0.1315176856D+00
      0.5215000000D+00  0.1099486598D+01
 S   1 1.00       0.000000000000
      0.1596000000D+00  0.1000000000D+01
 P   3 1.00       0.000000000000
      0.9439000000D+01  0.5697925159D-01
      0.2002000000D+01  0.3132072115D+00
      0.5456000000D+00  0.7603767417D+00
 P   1 1.00       0.000000000000
      0.1517000000D+00  0.1000000000D+01
 D   1 1.00       0.000000000000
      0.5500000000D+00  0.1000000000D+01
 ****
      7 0
 S   3 1.00       0.000000000000
      0.1301000000D+02  0.3349872639D-01
      0.1962000000D+01  0.2348008012D+00
      0.4446000000D+00  0.8136829579D+00
 S   1 1.00       0.000000000000
      0.1220000000D+00  0.1000000000D+01
 P   1 1.00       0.000000000000
      0.7270000000D+00  0.1000000000D+01
 ****
      8 0
 S   3 1.00       0.000000000000
      0.1301000000D+02  0.3349872639D-01
      0.1962000000D+01  0.2348008012D+00
      0.4446000000D+00  0.8136829579D+00
 S   1 1.00       0.000000000000
      0.1220000000D+00  0.1000000000D+01
 P   1 1.00       0.000000000000
      0.7270000000D+00  0.1000000000D+01
 ****
      9 0
 S   3 1.00       0.000000000000
      0.1301000000D+02  0.3349872639D-01
      0.1962000000D+01  0.2348008012D+00
      0.4446000000D+00  0.8136829579D+00
 S   1 1.00       0.000000000000
      0.1220000000D+00  0.1000000000D+01
 P   1 1.00       0.000000000000
      0.7270000000D+00  0.1000000000D+01
 ****
     10 0
 S   3 1.00       0.000000000000
      0.1301000000D+02  0.3349872639D-01
      0.1962000000D+01  0.2348008012D+00
      0.4446000000D+00  0.8136829579D+00
 S   1 1.00       0.000000000000
      0.1220000000D+00  0.1000000000D+01
 P   1 1.00       0.000000000000
      0.7270000000D+00  0.1000000000D+01
 ****
     11 0
 S   3 1.00       0.000000000000
      0.1301000000D+02  0.3349872639D-01
      0.1962000000D+01  0.2348008012D+00
      0.4446000000D+00  0.8136829579D+00
 S   1 1.00       0.000000000000
      0.1220000000D+00  0.1000000000D+01
 P   1 1.00       0.000000000000
      0.7270000000D+00  0.1000000000D+01
 ****
     12 0
 S   3 1.00       0.000000000000
      0.1301000000D+02  0.3349872639D-01
      0.1962000000D+01  0.2348008012D+00
      0.4446000000D+00  0.8136829579D+00
 S   1 1.00       0.000000000000
      0.1220000000D+00  0.1000000000D+01
 P   1 1.00       0.000000000000
      0.7270000000D+00  0.1000000000D+01
 ****

   120 basis functions,   240 primitive gaussians,   120 cartesian basis functions
    21 alpha electrons       21 beta electrons
       nuclear repulsion energy       202.9242874433 Hartrees.
 NAtoms=   12 NActive=   12 NUniq=   12 SFac= 1.00D+00 NAtFMM=   60 NAOKFM=F Big=F
 Integral buffers will be    131072 words long.
 Raffenetti 1 integral format.
 Two-electron integral symmetry is turned off.
 One-electron integrals computed using PRISM.
 NBasis=   120 RedAO= T EigKep=  3.42D-04  NBF=   120
 NBsUse=   120 1.00D-06 EigRej= -1.00D+00 NBFU=   120
 The nuclear repulsion energy is now       202.5334968734 hartrees.
 ExpMin= 1.22D-01 ExpMax= 6.67D+03 ExpMxC= 2.28D+02 IAcc=1 IRadAn=         1 AccDes= 0.00D+00
 Harris functional with IExCor=  205 and IRadAn=       1 diagonalized for initial guess.
 HarFok:  IExCor=  205 AccDes= 0.00D+00 IRadAn=         1 IDoV= 1 UseB2=F ITyADJ=14
 ICtDFT=  3500011 ScaDFX=  1.000000  1.000000  1.000000  1.000000
 FoFCou: FMM=F IPFlag=           0 FMFlag=      100000 FMFlg1=           0
         NFxFlg=           0 DoJE=T BraDBF=F KetDBF=T FulRan=T
         wScrn=  0.000000 ICntrl=       500 IOpCl=  0 I1Cent=   200000004 NGrid=           0
         NMat0=    1 NMatS0=      1 NMatT0=    0 NMatD0=    1 NMtDS0=    0 NMtDT0=    0
 Symmetry not used in FoFCou.
 Keep R1 ints in memory in canonical form, NReq=27311712.
 Requested convergence on RMS density matrix=1.00D-08 within 128 cycles.
 Requested convergence on MAX density matrix=1.00D-06.
 Requested convergence on             energy=1.00D-06.
 No special actions if energy rises.
 SCF Done:  E(RHF) =  -230.725972818     A.U. after   12 cycles
            NFock= 12  Conv=0.95D-08     -V/T= 2.0026

 **********************************************************************

            Population analysis using the SCF density.

 **********************************************************************

 Alpha  occ. eigenvalues --  -11.24110 -11.23671 -11.23654 -11.22829 -11.22813
 Alpha  occ. eigenvalues --  -11.22384  -1.13702  -1.00237  -1.00218  -0.81145
 Alpha  occ. eigenvalues --   -0.81122  -0.69497  -0.63192  -0.60462  -0.57458
 Alpha  occ. eigenvalues --   -0.57391  -0.48888  -0.48085  -0.48030  -0.32407
 Alpha  occ. eigenvalues --   -0.32335
 Alpha virt. eigenvalues --    0.14491   0.14561   0.17410   0.21900   0.22800
 Alpha virt. eigenvalues --    0.25644   0.27378   0.30418   0.35836   0.44153
 Alpha virt. eigenvalues --    0.44323   0.47795   0.47809   0.59249   0.59557
 Alpha virt. eigenvalues --    0.67026   0.67604   0.68825   0.71987   0.72103
 Alpha virt. eigenvalues --    0.74091   0.74269   0.74492   0.74578   0.75006
 Alpha virt. eigenvalues --    0.83111   0.83250   0.84918   0.85042   0.89455
 Alpha virt. eigenvalues --    0.89511   0.91953   0.98571   0.99215   1.05831
 Alpha virt. eigenvalues --    1.08660   1.08901   1.13279   1.15939   1.19374
 Alpha virt. eigenvalues --    1.19435   1.24998   1.25007   1.25202   1.25234
 Alpha virt. eigenvalues --    1.29909   1.32626   1.32651   1.47711   1.52183
 Alpha virt. eigenvalues --    1.52213   1.72648   1.74582   1.74951   1.77730
 Alpha virt. eigenvalues --    1.79592   1.86394   1.86446   1.89251   1.89279
 Alpha virt. eigenvalues --    1.90423   1.93951   1.95965   1.96255   1.96278
 Alpha virt. eigenvalues --    1.96347   2.09528   2.09563   2.12451   2.15002
 Alpha virt. eigenvalues --    2.15133   2.16117   2.16313   2.17736   2.27109
 Alpha virt. eigenvalues --    2.27133   2.28012   2.28291   2.33439   2.50291
 Alpha virt. eigenvalues --    2.56491   2.65806   2.73687   2.73708   2.76809
 Alpha virt. eigenvalues --    2.76815   2.82746   2.82800   2.87954   3.00726
 Alpha virt. eigenvalues --    3.11155   3.11359   3.13561   3.17879   3.17884
 Alpha virt. eigenvalues --    3.63720   3.63724   3.83484   4.50650
     Molecular Orbital Coefficients:
                           1         2         3         4         5
                           O         O         O         O         O
     Eigenvalues --   -11.24110 -11.23671 -11.23654 -11.22829 -11.22813
   1 1   C  1S          0.12963  -0.69408   0.69987  -0.04908   0.04845
   2        2S          0.00246  -0.01253   0.01277  -0.00083   0.00080
   3        3S          0.00112   0.00115  -0.00274   0.00180  -0.00054
   4        4PX        -0.00018   0.00004  -0.00004   0.00023  -0.00021
   5        4PY         0.00029   0.00004  -0.00003   0.00001   0.00000
   6        4PZ         0.00000   0.00000   0.00000   0.00000   0.00000
   7        5PX        -0.00001  -0.00010  -0.00039   0.00059  -0.00029
   8        5PY         0.00073   0.00002  -0.00074   0.00054  -0.00008
   9        5PZ         0.00000   0.00000   0.00000   0.00000   0.00000
  10        6XX        -0.00051   0.00146  -0.00144   0.00010  -0.00009
  11        6YY        -0.00031   0.00161  -0.00139  -0.00018   0.00011
  12        6ZZ        -0.00038   0.00184  -0.00180   0.00009  -0.00011
  13        6XY        -0.00023   0.00005   0.00001  -0.00002  -0.00001
  14        6XZ         0.00000   0.00000   0.00000   0.00000   0.00000
  15        6YZ         0.00000   0.00000   0.00000   0.00000   0.00000
  16 2   C  1S          0.00540  -0.04848   0.04863   0.70344  -0.68962
  17        2S          0.00022  -0.00095   0.00091   0.01285  -0.01243
  18        3S         -0.00067  -0.00034   0.00187  -0.00241   0.00115
  19        4PX        -0.00009   0.00025  -0.00024  -0.00004   0.00009
  20        4PY         0.00001   0.00000   0.00002   0.00012  -0.00002
  21        4PZ         0.00000   0.00000   0.00000   0.00000   0.00000
  22        5PX         0.00008   0.00034  -0.00066   0.00047  -0.00001
  23        5PY        -0.00043  -0.00009   0.00070  -0.00057   0.00005
  24        5PZ         0.00000   0.00000   0.00000   0.00000   0.00000
  25        6XX         0.00009   0.00004  -0.00006  -0.00151   0.00141
  26        6YY        -0.00002   0.00034  -0.00038  -0.00142   0.00159
  27        6ZZ         0.00002   0.00015  -0.00018  -0.00182   0.00183
  28        6XY        -0.00009   0.00001   0.00006   0.00007  -0.00007
  29        6XZ         0.00000   0.00000   0.00000   0.00000   0.00000
  30        6YZ         0.00000   0.00000   0.00000   0.00000   0.00000
  31 3   C  1S         -0.00024   0.00005   0.00418   0.18949   0.00376
  32        2S          0.00001   0.00000   0.00024   0.00354   0.00007
  33        3S          0.00077  -0.00002  -0.00149   0.00193   0.00004
  34        4PX        -0.00002   0.00000  -0.00005  -0.00027  -0.00001
  35        4PY         0.00000   0.00008   0.00000  -0.00001   0.00040
  36        4PZ         0.00000   0.00000   0.00000   0.00000   0.00000
  37        5PX        -0.00030   0.00001   0.00083  -0.00108  -0.00002
  38        5PY         0.00000   0.00015   0.00000  -0.00001   0.00043
  39        5PZ         0.00000   0.00000   0.00000   0.00000   0.00000
  40        6XX        -0.00002   0.00000   0.00015  -0.00081  -0.00002
  41        6YY         0.00002   0.00000  -0.00001  -0.00044  -0.00001
  42        6ZZ        -0.00001   0.00000   0.00004  -0.00057  -0.00001
  43        6XY         0.00000  -0.00013   0.00000   0.00001  -0.00027
  44        6XZ         0.00000   0.00000   0.00000   0.00000   0.00000
  45        6YZ         0.00000   0.00000   0.00000   0.00000   0.00000
  46 4   C  1S          0.00540   0.04964   0.04732   0.67651   0.71603
  47        2S          0.00022   0.00097   0.00089   0.01237   0.01292
  48        3S         -0.00067   0.00039   0.00186  -0.00237  -0.00124
  49        4PX        -0.00009  -0.00025  -0.00023  -0.00004  -0.00009
  50        4PY        -0.00001   0.00000  -0.00002  -0.00012  -0.00002
  51        4PZ         0.00000   0.00000   0.00000   0.00000   0.00000
  52        5PX         0.00008  -0.00036  -0.00065   0.00047   0.00003
  53        5PY         0.00043  -0.00011  -0.00069   0.00057   0.00007
  54        5PZ         0.00000   0.00000   0.00000   0.00000   0.00000
  55        6XX         0.00009  -0.00004  -0.00006  -0.00146  -0.00147
  56        6YY        -0.00002  -0.00035  -0.00037  -0.00135  -0.00164
  57        6ZZ         0.00002  -0.00015  -0.00018  -0.00175  -0.00190
  58        6XY         0.00009   0.00001  -0.00006  -0.00007  -0.00007
  59        6XZ         0.00000   0.00000   0.00000   0.00000   0.00000
  60        6YZ         0.00000   0.00000   0.00000   0.00000   0.00000
  61 5   C  1S          0.12977   0.71168   0.68195  -0.04712  -0.05023
  62        2S          0.00246   0.01285   0.01244  -0.00080  -0.00083
  63        3S          0.00112  -0.00122  -0.00271   0.00178   0.00061
  64        4PX        -0.00018  -0.00004  -0.00004   0.00023   0.00022
  65        4PY        -0.00029   0.00004   0.00003  -0.00001   0.00000
  66        4PZ         0.00000   0.00000   0.00000   0.00000   0.00000
  67        5PX        -0.00001   0.00009  -0.00040   0.00058   0.00031
  68        5PY        -0.00073   0.00004   0.00074  -0.00054  -0.00010
  69        5PZ         0.00000   0.00000   0.00000   0.00000   0.00000
  70        6XX        -0.00051  -0.00149  -0.00140   0.00010   0.00010
  71        6YY        -0.00031  -0.00164  -0.00135  -0.00017  -0.00012
  72        6ZZ        -0.00038  -0.00188  -0.00175   0.00008   0.00011
  73        6XY         0.00023   0.00005  -0.00002   0.00002  -0.00001
  74        6XZ         0.00000   0.00000   0.00000   0.00000   0.00000
  75        6YZ         0.00000   0.00000   0.00000   0.00000   0.00000
  76 6   C  1S          0.97941  -0.00244  -0.18406   0.00522   0.00010
  77        2S          0.01781  -0.00004  -0.00321   0.00022   0.00000
  78        3S         -0.00226   0.00003   0.00264  -0.00133  -0.00003
  79        4PX        -0.00011   0.00000   0.00025   0.00002   0.00000
  80        4PY         0.00000   0.00039   0.00000   0.00000   0.00003
  81        4PZ         0.00000   0.00000   0.00000   0.00000   0.00000
  82        5PX        -0.00030   0.00001   0.00106  -0.00071  -0.00001
  83        5PY         0.00000   0.00051  -0.00001   0.00000   0.00007
  84        5PZ         0.00000   0.00000   0.00000   0.00000   0.00000
  85        6XX        -0.00218   0.00000   0.00002   0.00019   0.00000
  86        6YY        -0.00206   0.00000   0.00030   0.00004   0.00000
  87        6ZZ        -0.00256   0.00001   0.00042   0.00003   0.00000
  88        6XY         0.00000   0.00026   0.00000   0.00000   0.00008
  89        6XZ         0.00000   0.00000   0.00000   0.00000   0.00000
  90        6YZ         0.00000   0.00000   0.00000   0.00000   0.00000
  91 7   H  1S          0.00017  -0.00031   0.00018   0.00009  -0.00005
  92        2S          0.00018  -0.00023   0.00008   0.00014  -0.00002
  93        3PX         0.00000  -0.00003  -0.00001   0.00006  -0.00005
  94        3PY         0.00010  -0.00003  -0.00001   0.00004  -0.00004
  95        3PZ         0.00000   0.00000   0.00000   0.00000   0.00000
  96 8   H  1S         -0.00005  -0.00010   0.00015   0.00027  -0.00034
  97        2S         -0.00007  -0.00007   0.00021   0.00008  -0.00019
  98        3PX        -0.00002   0.00006  -0.00006  -0.00001   0.00006
  99        3PY        -0.00003  -0.00004   0.00005   0.00007  -0.00007
 100        3PZ         0.00000   0.00000   0.00000   0.00000   0.00000
 101 9   H  1S          0.00001   0.00000  -0.00009   0.00029   0.00001
 102        2S          0.00006   0.00000  -0.00015   0.00029   0.00001
 103        3PX         0.00000   0.00000   0.00003  -0.00016   0.00000
 104        3PY         0.00000   0.00004   0.00000   0.00000   0.00006
 105        3PZ         0.00000   0.00000   0.00000   0.00000   0.00000
 106 10  H  1S         -0.00005   0.00011   0.00015   0.00025   0.00035
 107        2S         -0.00007   0.00008   0.00021   0.00007   0.00020
 108        3PX        -0.00002  -0.00006  -0.00006  -0.00001  -0.00006
 109        3PY         0.00003  -0.00004  -0.00005  -0.00007  -0.00007
 110        3PZ         0.00000   0.00000   0.00000   0.00000   0.00000
 111 11  H  1S          0.00017   0.00031   0.00017   0.00009   0.00006
 112        2S          0.00018   0.00023   0.00007   0.00014   0.00003
 113        3PX         0.00000   0.00003  -0.00001   0.00006   0.00006
 114        3PY        -0.00010  -0.00003   0.00001  -0.00004  -0.00004
 115        3PZ         0.00000   0.00000   0.00000   0.00000   0.00000
 116 12  H  1S          0.00035   0.00000   0.00012  -0.00011   0.00000
 117        2S          0.00028   0.00000   0.00015  -0.00011   0.00000
 118        3PX         0.00002   0.00000   0.00013  -0.00005   0.00000
 119        3PY         0.00000   0.00006   0.00000   0.00000   0.00002
 120        3PZ         0.00000   0.00000   0.00000   0.00000   0.00000
                           6         7         8         9        10
                           O         O         O         O         O
     Eigenvalues --   -11.22384  -1.13702  -1.00237  -1.00218  -0.81145
   1 1   C  1S          0.00645  -0.09140   0.10771   0.06024   0.05071
   2        2S          0.00021   0.18332  -0.21413  -0.11925  -0.10346
   3        3S         -0.00135   0.09622  -0.12229  -0.06865  -0.08987
   4        4PX         0.00000   0.02826  -0.06387   0.08295  -0.13795
   5        4PY         0.00000   0.05731   0.00794  -0.06109   0.11468
   6        4PZ         0.00000  -0.00003  -0.00002   0.00006  -0.00012
   7        5PX        -0.00033   0.00397  -0.02729   0.03087  -0.04665
   8        5PY        -0.00059   0.01214  -0.00381  -0.02839   0.02178
   9        5PZ         0.00000  -0.00001  -0.00001   0.00003  -0.00003
  10        6XX         0.00010   0.01013  -0.01719   0.00591  -0.01001
  11        6YY         0.00009   0.00654   0.00411  -0.01328   0.00896
  12        6ZZ         0.00002  -0.00535   0.00603   0.00346   0.00220
  13        6XY         0.00010  -0.00483   0.00219   0.01223  -0.00614
  14        6XZ         0.00000   0.00001  -0.00001  -0.00001   0.00000
  15        6YZ         0.00000  -0.00001   0.00000   0.00002  -0.00001
  16 2   C  1S         -0.13422  -0.08546   0.10718  -0.06351   0.04655
  17        2S         -0.00237   0.17191  -0.21323   0.12689  -0.09520
  18        3S          0.00217   0.08978  -0.12135   0.07124  -0.07876
  19        4PX         0.00016  -0.03488   0.06329   0.07451   0.13983
  20        4PY         0.00025   0.05259   0.00284   0.06567   0.11457
  21        4PZ         0.00000  -0.00004   0.00002  -0.00002  -0.00003
  22        5PX        -0.00023  -0.00833   0.02977   0.02724   0.04686
  23        5PY         0.00095   0.00953  -0.00424   0.02860   0.02386
  24        5PZ         0.00000  -0.00001   0.00001  -0.00001   0.00000
  25        6XX         0.00002   0.01053  -0.01710  -0.00589  -0.01224
  26        6YY         0.00016   0.00564   0.00321   0.01407   0.01064
  27        6ZZ         0.00030  -0.00507   0.00624  -0.00361   0.00225
  28        6XY         0.00018   0.00368  -0.00289   0.01179   0.00498
  29        6XZ         0.00000   0.00000  -0.00001  -0.00001  -0.00001
  30        6YZ         0.00000  -0.00001   0.00000  -0.00001   0.00000
  31 3   C  1S          0.97838  -0.08263   0.00473  -0.12487  -0.09903
  32        2S          0.01773   0.16649  -0.00943   0.24904   0.20322
  33        3S         -0.00309   0.08658  -0.00532   0.14062   0.16770
  34        4PX        -0.00017  -0.06252   0.00147  -0.03862   0.04976
  35        4PY         0.00000   0.00000   0.10960   0.00415   0.00635
  36        4PZ         0.00000  -0.00002  -0.00007  -0.00001   0.00001
  37        5PX         0.00088  -0.01232   0.00086  -0.02290  -0.00966
  38        5PY         0.00000   0.00000   0.04383   0.00166   0.00179
  39        5PZ         0.00000   0.00000  -0.00003  -0.00001   0.00000
  40        6XX        -0.00208   0.00424  -0.00001   0.00016  -0.00154
  41        6YY        -0.00196   0.01168  -0.00062   0.01647   0.00522
  42        6ZZ        -0.00255  -0.00493   0.00028  -0.00732  -0.00466
  43        6XY         0.00000   0.00000  -0.01797  -0.00068  -0.00051
  44        6XZ         0.00000   0.00000   0.00001   0.00000   0.00000
  45        6YZ         0.00000  -0.00001   0.00000  -0.00002  -0.00001
  46 4   C  1S         -0.13441  -0.08546  -0.10207  -0.07143   0.04106
  47        2S         -0.00237   0.17191   0.20303   0.14264  -0.08395
  48        3S          0.00217   0.08978   0.11562   0.08022  -0.06936
  49        4PX         0.00016  -0.03489  -0.06874   0.06952   0.14636
  50        4PY        -0.00025  -0.05258   0.00781  -0.06527  -0.11498
  51        4PZ         0.00000   0.00002  -0.00003   0.00006   0.00012
  52        5PX        -0.00023  -0.00833  -0.03175   0.02491   0.04800
  53        5PY        -0.00095  -0.00953  -0.00206  -0.02884  -0.02509
  54        5PZ         0.00000   0.00000  -0.00001   0.00003   0.00003
  55        6XX         0.00002   0.01053   0.01750  -0.00459  -0.01243
  56        6YY         0.00016   0.00564  -0.00426   0.01379   0.01099
  57        6ZZ         0.00030  -0.00507  -0.00595  -0.00407   0.00200
  58        6XY        -0.00018  -0.00368  -0.00200  -0.01197  -0.00533
  59        6XZ         0.00000   0.00001   0.00001   0.00001   0.00000
  60        6YZ         0.00000  -0.00001   0.00000  -0.00002  -0.00001
  61 5   C  1S          0.00646  -0.09140  -0.11195   0.05193   0.05573
  62        2S          0.00021   0.18331   0.22253  -0.10272  -0.11367
  63        3S         -0.00135   0.09622   0.12714  -0.05920  -0.09856
  64        4PX         0.00000   0.02825   0.05742   0.08753  -0.13019
  65        4PY         0.00000  -0.05732   0.00328   0.06151  -0.11421
  66        4PZ         0.00000   0.00005   0.00002  -0.00001   0.00003
  67        5PX        -0.00033   0.00397   0.02488   0.03285  -0.04484
  68        5PY         0.00059  -0.01215  -0.00595   0.02801  -0.02045
  69        5PZ         0.00000   0.00001   0.00001  -0.00001   0.00000
  70        6XX         0.00010   0.01012   0.01670   0.00719  -0.00974
  71        6YY         0.00009   0.00654  -0.00310  -0.01355   0.00857
  72        6ZZ         0.00002  -0.00535  -0.00628   0.00299   0.00243
  73        6XY        -0.00010   0.00482   0.00310  -0.01203   0.00579
  74        6XZ         0.00000   0.00000   0.00001   0.00001  -0.00001
  75        6YZ         0.00000  -0.00001   0.00000   0.00001   0.00000
  76 6   C  1S          0.00001  -0.09451  -0.00464   0.12249  -0.09519
  77        2S         -0.00005   0.18930   0.00919  -0.24292   0.19365
  78        3S          0.00118   0.09948   0.00528  -0.13965   0.16799
  79        4PX         0.00000   0.06408   0.00089  -0.02332  -0.06983
  80        4PY         0.00000   0.00000   0.12133   0.00460  -0.00647
  81        4PZ         0.00000   0.00002  -0.00008  -0.00001  -0.00002
  82        5PX         0.00055   0.01251   0.00069  -0.01817   0.00508
  83        5PY         0.00000   0.00000   0.04717   0.00178  -0.00194
  84        5PZ         0.00000   0.00000  -0.00003  -0.00001   0.00000
  85        6XX        -0.00010   0.00367  -0.00004   0.00098   0.00008
  86        6YY         0.00000   0.01323   0.00058  -0.01540   0.00167
  87        6ZZ        -0.00003  -0.00549  -0.00026   0.00681  -0.00422
  88        6XY         0.00000   0.00000   0.01853   0.00070  -0.00044
  89        6XZ         0.00000   0.00000  -0.00001   0.00000   0.00000
  90        6YZ         0.00000  -0.00001   0.00001   0.00002   0.00000
  91 7   H  1S         -0.00009   0.04881  -0.09318  -0.05349  -0.08196
  92        2S         -0.00011   0.00378  -0.01397  -0.00791  -0.01997
  93        3PX        -0.00001   0.00379  -0.00765  -0.00150  -0.00721
  94        3PY        -0.00005   0.00687  -0.01053  -0.00769  -0.00634
  95        3PZ         0.00000   0.00000   0.00000   0.00000   0.00000
  96 8   H  1S          0.00010   0.04298  -0.08792   0.05093  -0.07396
  97        2S          0.00015   0.00238  -0.01058   0.00622  -0.01400
  98        3PX        -0.00001  -0.00369   0.00759  -0.00165   0.00734
  99        3PY         0.00009   0.00611  -0.01024   0.00755  -0.00589
 100        3PZ         0.00000  -0.00001   0.00001  -0.00001   0.00001
 101 9   H  1S          0.00041   0.04032  -0.00373   0.09869   0.14634
 102        2S          0.00011   0.00185  -0.00040   0.01073   0.02509
 103        3PX        -0.00011  -0.00681   0.00055  -0.01449  -0.01777
 104        3PY         0.00000   0.00000   0.00270   0.00010   0.00011
 105        3PZ         0.00000   0.00000   0.00000   0.00000  -0.00001
 106 10  H  1S          0.00010   0.04298   0.08382   0.05744  -0.06560
 107        2S          0.00015   0.00238   0.01008   0.00701  -0.01239
 108        3PX        -0.00001  -0.00369  -0.00745  -0.00222   0.00692
 109        3PY        -0.00009  -0.00611  -0.00964  -0.00830   0.00499
 110        3PZ         0.00000   0.00000   0.00000   0.00000   0.00000
 111 11  H  1S         -0.00009   0.04881   0.09695  -0.04629  -0.09043
 112        2S         -0.00011   0.00378   0.01453  -0.00683  -0.02200
 113        3PX        -0.00001   0.00379   0.00774  -0.00091  -0.00756
 114        3PY         0.00005  -0.00687  -0.01109   0.00687   0.00724
 115        3PZ         0.00000   0.00001   0.00001   0.00000  -0.00001
 116 12  H  1S          0.00005   0.05199   0.00417  -0.11033   0.16587
 117        2S          0.00010   0.00468   0.00069  -0.01835   0.04441
 118        3PX         0.00002   0.00822   0.00057  -0.01502   0.01794
 119        3PY         0.00000   0.00000   0.00296   0.00011  -0.00012
 120        3PZ         0.00000   0.00000   0.00000   0.00000   0.00001
                          11        12        13        14        15
                           O         O         O         O         O
     Eigenvalues --    -0.81122  -0.69497  -0.63192  -0.60462  -0.57458
   1 1   C  1S          0.08197   0.00648   0.05320  -0.00261  -0.01824
   2        2S         -0.16709  -0.00665  -0.10337   0.00488   0.04281
   3        3S         -0.14203  -0.02112  -0.16569   0.01880   0.06642
   4        4PX         0.12042   0.09233   0.08515   0.23569   0.16302
   5        4PY        -0.00344   0.17610   0.10274  -0.14586   0.20369
   6        4PZ         0.00004  -0.00009  -0.00004   0.00017  -0.00008
   7        5PX         0.02727   0.03623   0.01704   0.08774   0.06076
   8        5PY        -0.02045   0.05581   0.00154  -0.04874   0.08412
   9        5PZ         0.00002  -0.00003   0.00000   0.00006  -0.00004
  10        6XX         0.00407  -0.00167   0.01678   0.00688   0.01225
  11        6YY        -0.00598   0.00474  -0.00807  -0.00702  -0.01021
  12        6ZZ         0.00373  -0.00065   0.00089  -0.00015  -0.00038
  13        6XY         0.00550   0.00284  -0.02131   0.00584  -0.00303
  14        6XZ         0.00000   0.00000   0.00002   0.00000   0.00001
  15        6YZ         0.00001   0.00000   0.00000   0.00001   0.00001
  16 2   C  1S         -0.08659   0.01083  -0.05819   0.00302  -0.01368
  17        2S          0.17739  -0.01575   0.11533  -0.00588   0.03338
  18        3S          0.14824  -0.03989   0.16651  -0.01916   0.03582
  19        4PX         0.10936  -0.09466   0.04245  -0.23941  -0.16918
  20        4PY         0.00977   0.15108  -0.11696  -0.13399   0.18375
  21        4PZ         0.00003  -0.00013   0.00009   0.00001  -0.00017
  22        5PX         0.01955  -0.02675  -0.00448  -0.07834  -0.04294
  23        5PY         0.02020   0.05359  -0.01647  -0.04912   0.08626
  24        5PZ        -0.00001  -0.00004   0.00001   0.00001  -0.00007
  25        6XX        -0.00333   0.00036  -0.01347   0.00815   0.01157
  26        6YY         0.00602   0.00274   0.00431  -0.00807  -0.00906
  27        6ZZ        -0.00395  -0.00044  -0.00077   0.00016  -0.00012
  28        6XY         0.00584  -0.00569  -0.02109  -0.00440  -0.00101
  29        6XZ         0.00000   0.00000   0.00001   0.00001   0.00000
  30        6YZ        -0.00001   0.00000  -0.00001   0.00000   0.00001
  31 3   C  1S         -0.00309   0.01259   0.06070   0.00002  -0.00031
  32        2S          0.00635  -0.01951  -0.12135  -0.00003   0.00080
  33        3S          0.00524  -0.04670  -0.16762  -0.00004   0.00069
  34        4PX         0.00155  -0.16828  -0.11976  -0.00002  -0.00674
  35        4PY        -0.20347  -0.00001  -0.00004   0.27438  -0.06319
  36        4PZ         0.00013  -0.00005  -0.00004  -0.00018   0.00004
  37        5PX        -0.00031  -0.05650  -0.01313   0.00000  -0.00268
  38        5PY        -0.05791   0.00000  -0.00001   0.08906   0.01380
  39        5PZ         0.00004  -0.00002  -0.00001  -0.00006  -0.00001
  40        6XX        -0.00005   0.00687  -0.01466   0.00000  -0.00005
  41        6YY         0.00016  -0.00376   0.02401   0.00000   0.00013
  42        6ZZ        -0.00015  -0.00037   0.00072   0.00000   0.00000
  43        6XY         0.01641   0.00000   0.00000  -0.01083   0.01851
  44        6XZ        -0.00001   0.00000  -0.00001   0.00001  -0.00001
  45        6YZ         0.00000   0.00000  -0.00002   0.00000   0.00001
  46 4   C  1S          0.08932   0.01083  -0.05819  -0.00304   0.01329
  47        2S         -0.18298  -0.01575   0.11534   0.00592  -0.03239
  48        3S         -0.15287  -0.03986   0.16650   0.01922  -0.03461
  49        4PX        -0.10042  -0.09469   0.04232   0.23939   0.16766
  50        4PY         0.00261  -0.15105   0.11693  -0.13398   0.17575
  51        4PZ        -0.00003   0.00007  -0.00006   0.00016  -0.00006
  52        5PX        -0.01658  -0.02678  -0.00452   0.07833   0.04128
  53        5PY         0.01868  -0.05359   0.01646  -0.04913   0.08356
  54        5PZ        -0.00002   0.00003  -0.00001   0.00006  -0.00004
  55        6XX         0.00256   0.00037  -0.01345  -0.00815  -0.01199
  56        6YY        -0.00535   0.00274   0.00429   0.00807   0.00958
  57        6ZZ         0.00408  -0.00044  -0.00077  -0.00016   0.00011
  58        6XY         0.00551   0.00570   0.02109  -0.00438  -0.00153
  59        6XZ         0.00000   0.00000  -0.00002   0.00000   0.00000
  60        6YZ         0.00001   0.00000   0.00000  -0.00001  -0.00001
  61 5   C  1S         -0.07865   0.00648   0.05320   0.00263   0.01866
  62        2S          0.16032  -0.00666  -0.10335  -0.00492  -0.04376
  63        3S          0.13615  -0.02115  -0.16569  -0.01886  -0.06781
  64        4PX        -0.12880   0.09230   0.08528  -0.23568  -0.16210
  65        4PY        -0.01058  -0.17613  -0.10278  -0.14587   0.21067
  66        4PZ        -0.00003   0.00014   0.00009   0.00002  -0.00018
  67        5PX        -0.03013   0.03620   0.01711  -0.08774  -0.06158
  68        5PY        -0.02177  -0.05581  -0.00154  -0.04873   0.08611
  69        5PZ         0.00001   0.00005   0.00000   0.00000  -0.00007
  70        6XX        -0.00469  -0.00167   0.01679  -0.00688  -0.01170
  71        6YY         0.00653   0.00474  -0.00808   0.00701   0.00962
  72        6ZZ        -0.00358  -0.00065   0.00089   0.00015   0.00039
  73        6XY         0.00588  -0.00284   0.02130   0.00585  -0.00361
  74        6XZ         0.00000   0.00000  -0.00001  -0.00001   0.00000
  75        6YZ        -0.00001  -0.00001   0.00001   0.00000  -0.00001
  76 6   C  1S         -0.00297   0.00389  -0.05065  -0.00001   0.00052
  77        2S          0.00605  -0.00133   0.09731   0.00003  -0.00119
  78        3S          0.00525  -0.00939   0.16555   0.00005  -0.00202
  79        4PX        -0.00217   0.20933  -0.13726  -0.00002  -0.00651
  80        4PY         0.20715   0.00001  -0.00003   0.27985  -0.10456
  81        4PZ        -0.00013   0.00006  -0.00004  -0.00018   0.00007
  82        5PX         0.00016   0.06942  -0.00847   0.00000  -0.00253
  83        5PY         0.06261  -0.00001   0.00000   0.10565  -0.01585
  84        5PZ        -0.00004   0.00002   0.00000  -0.00007   0.00001
  85        6XX         0.00000   0.00456   0.01901   0.00000   0.00021
  86        6YY         0.00005  -0.00154  -0.02745   0.00000  -0.00025
  87        6ZZ        -0.00013  -0.00080  -0.00093   0.00000   0.00001
  88        6XY         0.01422   0.00000   0.00000   0.00996  -0.02163
  89        6XZ        -0.00001   0.00000   0.00001  -0.00001   0.00001
  90        6YZ         0.00000   0.00000   0.00002   0.00000  -0.00001
  91 7   H  1S         -0.13846  -0.15808  -0.18836   0.01113  -0.20194
  92        2S         -0.03317  -0.04434  -0.07953   0.00444  -0.08303
  93        3PX        -0.00577  -0.00677  -0.00610   0.00504  -0.00411
  94        3PY        -0.01451  -0.01152  -0.01232  -0.00206  -0.01232
  95        3PZ         0.00001   0.00001   0.00001   0.00000   0.00001
  96 8   H  1S          0.13180  -0.14117   0.17951  -0.00727  -0.18526
  97        2S          0.02552  -0.02919   0.06182  -0.00260  -0.05786
  98        3PX        -0.00646   0.00642  -0.00795  -0.00421   0.00437
  99        3PY         0.01423  -0.01130   0.01211  -0.00303  -0.01246
 100        3PZ        -0.00001   0.00001  -0.00001   0.00000   0.00001
 101 9   H  1S          0.00456  -0.13303  -0.17681  -0.00002  -0.00506
 102        2S          0.00078  -0.02317  -0.05453  -0.00001  -0.00137
 103        3PX        -0.00055   0.01276   0.01494   0.00000   0.00038
 104        3PY        -0.00369   0.00000   0.00000   0.00512  -0.00433
 105        3PZ         0.00000   0.00000   0.00000   0.00000   0.00000
 106 10  H  1S         -0.13616  -0.14116   0.17945   0.00734   0.17939
 107        2S         -0.02634  -0.02918   0.06180   0.00263   0.05601
 108        3PX         0.00690   0.00642  -0.00795   0.00420  -0.00400
 109        3PY         0.01456   0.01130  -0.01210  -0.00303  -0.01219
 110        3PZ        -0.00001  -0.00001   0.00001   0.00000   0.00001
 111 11  H  1S          0.13308  -0.15810  -0.18843  -0.01120   0.20631
 112        2S          0.03186  -0.04435  -0.07955  -0.00448   0.08480
 113        3PX         0.00531  -0.00676  -0.00610  -0.00504   0.00442
 114        3PY        -0.01409   0.01152   0.01233  -0.00205  -0.01245
 115        3PZ         0.00001  -0.00001  -0.00001   0.00000   0.00001
 116 12  H  1S          0.00517  -0.16696   0.19412   0.00003   0.00518
 117        2S          0.00139  -0.05389   0.09022   0.00002   0.00241
 118        3PX         0.00056  -0.01350   0.01341   0.00000   0.00031
 119        3PY         0.00384   0.00000   0.00000   0.00560  -0.00528
 120        3PZ         0.00000   0.00000   0.00000   0.00000   0.00000
                          16        17        18        19        20
                           O         O         O         O         O
     Eigenvalues --    -0.57391  -0.48888  -0.48085  -0.48030  -0.32407
   1 1   C  1S         -0.00930   0.00000  -0.00206  -0.00671   0.00000
   2        2S          0.02126   0.00000   0.00986   0.01762   0.00000
   3        3S          0.03094   0.00000  -0.01050   0.02577   0.00000
   4        4PX        -0.01482  -0.00007  -0.02402   0.24242   0.00009
   5        4PY         0.15701   0.00014   0.20912  -0.00939  -0.00018
   6        4PZ        -0.00011   0.22459  -0.00014   0.00008  -0.28412
   7        5PX         0.01971  -0.00004  -0.00437   0.11242   0.00007
   8        5PY         0.04518   0.00009   0.07858  -0.00965  -0.00015
   9        5PZ        -0.00002   0.13713  -0.00005   0.00004  -0.23889
  10        6XX        -0.01166   0.00000   0.00400   0.01857   0.00001
  11        6YY         0.01243   0.00002  -0.00407  -0.01933   0.00000
  12        6ZZ        -0.00012  -0.00001   0.00007   0.00015  -0.00001
  13        6XY        -0.01318   0.00000  -0.03017  -0.00515  -0.00001
  14        6XZ         0.00000   0.00631   0.00002   0.00001  -0.01782
  15        6YZ        -0.00001   0.01416  -0.00001   0.00001  -0.00175
  16 2   C  1S          0.00786   0.00000   0.00352   0.00349   0.00000
  17        2S         -0.02004   0.00000  -0.01363  -0.00410   0.00000
  18        3S         -0.02475   0.00000  -0.00792  -0.02689   0.00000
  19        4PX         0.03013  -0.00006  -0.00669  -0.24780   0.00008
  20        4PY        -0.17044   0.00013  -0.24770  -0.02245  -0.00017
  21        4PZ         0.00012   0.20492   0.00016  -0.00006  -0.27116
  22        5PX         0.03528  -0.00004  -0.00782  -0.08834   0.00006
  23        5PY        -0.05722   0.00008  -0.11022  -0.00316  -0.00014
  24        5PZ         0.00005   0.11955   0.00007  -0.00003  -0.20989
  25        6XX         0.00931   0.00000  -0.00569   0.02289  -0.00001
  26        6YY        -0.01141   0.00001   0.00485  -0.02181   0.00000
  27        6ZZ         0.00020  -0.00002  -0.00004  -0.00004   0.00001
  28        6XY        -0.01177  -0.00001  -0.02989   0.00561   0.00001
  29        6XZ         0.00001  -0.00918   0.00002   0.00000   0.01910
  30        6YZ         0.00000   0.01281  -0.00001   0.00002  -0.00220
  31 3   C  1S          0.01428   0.00000   0.00001  -0.00084   0.00000
  32        2S         -0.03614   0.00000   0.00008  -0.00536   0.00000
  33        3S         -0.03142   0.00000  -0.00019   0.01234   0.00000
  34        4PX         0.29177  -0.00006  -0.00388   0.25214   0.00000
  35        4PY        -0.00146   0.00013   0.26688   0.00409   0.00000
  36        4PZ         0.00009   0.19557  -0.00017   0.00007  -0.00247
  37        5PX         0.11644  -0.00003  -0.00169   0.10952   0.00000
  38        5PY         0.00031   0.00007   0.09250   0.00140   0.00000
  39        5PZ         0.00004   0.11182  -0.00006   0.00003  -0.00189
  40        6XX         0.00195   0.00001  -0.00044   0.02882   0.00000
  41        6YY        -0.00548   0.00000   0.00047  -0.03098   0.00003
  42        6ZZ         0.00012  -0.00001   0.00000   0.00009  -0.00003
  43        6XY         0.00043  -0.00001  -0.02288  -0.00035  -0.00001
  44        6XZ         0.00000  -0.01577   0.00001   0.00001   0.00012
  45        6YZ         0.00000   0.00000  -0.00001   0.00002   0.02892
  46 4   C  1S          0.00849   0.00000  -0.00363   0.00339   0.00000
  47        2S         -0.02157   0.00000   0.01375  -0.00369   0.00000
  48        3S         -0.02638   0.00000   0.00875  -0.02664   0.00000
  49        4PX         0.03790  -0.00006   0.01424  -0.24748  -0.00008
  50        4PY         0.17870   0.00013  -0.24829   0.01489   0.00017
  51        4PZ        -0.00010   0.20492   0.00016  -0.00009   0.26846
  52        5PX         0.03724  -0.00004   0.01050  -0.08804  -0.00006
  53        5PY         0.06112   0.00008  -0.11027  -0.00023   0.00013
  54        5PZ        -0.00003   0.11955   0.00007  -0.00003   0.20768
  55        6XX         0.00877   0.00000   0.00497   0.02306   0.00001
  56        6YY        -0.01098  -0.00001  -0.00417  -0.02194   0.00000
  57        6ZZ         0.00021   0.00001   0.00004  -0.00004  -0.00001
  58        6XY         0.01171   0.00000  -0.02970  -0.00654  -0.00001
  59        6XZ         0.00000  -0.00918   0.00002   0.00001  -0.01936
  60        6YZ         0.00001  -0.01281  -0.00001   0.00001  -0.00190
  61 5   C  1S         -0.00844   0.00000   0.00226  -0.00665   0.00000
  62        2S          0.01925   0.00000  -0.01039   0.01731   0.00000
  63        3S          0.02784   0.00000   0.00971   0.02608   0.00000
  64        4PX        -0.02231  -0.00007   0.01661   0.24305  -0.00009
  65        4PY        -0.14746   0.00015   0.20874   0.01576   0.00018
  66        4PZ         0.00009   0.22459  -0.00013   0.00006   0.28626
  67        5PX         0.01687  -0.00004   0.00093   0.11252  -0.00007
  68        5PY        -0.04127   0.00009   0.07824   0.01205   0.00015
  69        5PZ         0.00003   0.13713  -0.00005   0.00003   0.24058
  70        6XX        -0.01221   0.00000  -0.00458   0.01844  -0.00001
  71        6YY         0.01289  -0.00002   0.00467  -0.01920   0.00000
  72        6ZZ        -0.00011   0.00002  -0.00007   0.00015   0.00001
  73        6XY         0.01303   0.00001  -0.03031   0.00421   0.00001
  74        6XZ        -0.00001   0.00631   0.00002   0.00000   0.01750
  75        6YZ        -0.00001  -0.01417  -0.00001   0.00002  -0.00202
  76 6   C  1S         -0.02333   0.00000  -0.00010   0.00686   0.00000
  77        2S          0.05308   0.00000   0.00031  -0.02063   0.00000
  78        3S          0.08958   0.00000   0.00012  -0.00854   0.00000
  79        4PX         0.28215  -0.00007   0.00288  -0.18803   0.00000
  80        4PY        -0.00242   0.00015  -0.24316  -0.00373   0.00000
  81        4PZ         0.00009   0.23496   0.00016  -0.00006   0.00239
  82        5PX         0.11019  -0.00004   0.00110  -0.07155   0.00000
  83        5PY        -0.00038   0.00009  -0.11558  -0.00176   0.00000
  84        5PZ         0.00003   0.14711   0.00007  -0.00002   0.00204
  85        6XX        -0.00920  -0.00001  -0.00042   0.02777   0.00000
  86        6YY         0.01062   0.00000   0.00041  -0.02653   0.00003
  87        6ZZ        -0.00049   0.00001   0.00000  -0.00016  -0.00003
  88        6XY        -0.00050   0.00001  -0.01875  -0.00029  -0.00001
  89        6XZ         0.00000   0.01523   0.00001   0.00001   0.00008
  90        6YZ        -0.00001   0.00000  -0.00001   0.00002   0.03121
  91 7   H  1S         -0.10123   0.00000  -0.17564  -0.10697   0.00000
  92        2S         -0.04127   0.00000  -0.10250  -0.06319   0.00000
  93        3PX        -0.00700   0.00000  -0.00722   0.00347   0.00000
  94        3PY        -0.00322   0.00001  -0.00486  -0.00746  -0.00001
  95        3PZ         0.00000   0.00785   0.00000   0.00001  -0.01081
  96 8   H  1S          0.12502   0.00000   0.20220  -0.10993   0.00000
  97        2S          0.03963   0.00000   0.09497  -0.05157   0.00000
  98        3PX        -0.00789   0.00000  -0.00888  -0.00331   0.00000
  99        3PY         0.00565   0.00000   0.00695  -0.00847  -0.00001
 100        3PZ        -0.00001   0.00686  -0.00001   0.00000  -0.01001
 101 9   H  1S          0.21822   0.00000  -0.00372   0.24264   0.00000
 102        2S          0.05916   0.00000  -0.00156   0.10155   0.00000
 103        3PX        -0.01613   0.00000   0.00021  -0.01345   0.00000
 104        3PY        -0.00010   0.00000   0.00852   0.00013   0.00000
 105        3PZ         0.00000   0.00640  -0.00001   0.00000  -0.00009
 106 10  H  1S          0.13339   0.00000  -0.19875  -0.11609   0.00000
 107        2S          0.04225   0.00000  -0.09335  -0.05447   0.00000
 108        3PX        -0.00808   0.00000   0.00898  -0.00303   0.00000
 109        3PY        -0.00621   0.00000   0.00668   0.00868   0.00001
 110        3PZ         0.00000   0.00686   0.00000  -0.00001   0.00991
 111 11  H  1S         -0.09184   0.00000   0.17884  -0.10152   0.00000
 112        2S         -0.03740   0.00000   0.10439  -0.06000   0.00000
 113        3PX        -0.00681   0.00000   0.00711   0.00369   0.00000
 114        3PY         0.00265   0.00000  -0.00508   0.00731   0.00001
 115        3PZ         0.00000   0.00785   0.00001   0.00000   0.01089
 116 12  H  1S         -0.22336   0.00000  -0.00296   0.19379   0.00000
 117        2S         -0.10407   0.00000  -0.00193   0.12624   0.00000
 118        3PX        -0.01320   0.00000  -0.00012   0.00791   0.00000
 119        3PY        -0.00012   0.00001  -0.00750  -0.00011   0.00000
 120        3PZ         0.00000   0.00839   0.00000   0.00000   0.00009
                          21        22        23        24        25
                           O         V         V         V         V
     Eigenvalues --    -0.32335   0.14491   0.14561   0.17410   0.21900
   1 1   C  1S          0.00000   0.00000   0.00000   0.03832  -0.05041
   2        2S          0.00000   0.00000   0.00000  -0.01358   0.03118
   3        3S          0.00000  -0.00001   0.00000  -0.78984   1.18216
   4        4PX         0.00004   0.00005  -0.00008   0.05365  -0.07409
   5        4PY        -0.00009  -0.00011   0.00017   0.09779  -0.14335
   6        4PZ        -0.14332  -0.17198   0.26246  -0.00005   0.00007
   7        5PX         0.00003   0.00010  -0.00015   0.04314  -0.47466
   8        5PY        -0.00007  -0.00022   0.00033   0.29008  -0.76928
   9        5PZ        -0.11359  -0.33227   0.49894  -0.00017   0.00035
  10        6XX        -0.00001   0.00001   0.00001   0.00534  -0.01332
  11        6YY        -0.00002   0.00002   0.00000   0.00819   0.00134
  12        6ZZ         0.00003  -0.00004  -0.00001   0.01946  -0.01979
  13        6XY         0.00002  -0.00002  -0.00002   0.00539   0.01145
  14        6XZ         0.02111  -0.02537  -0.02414  -0.00001  -0.00001
  15        6YZ        -0.01722   0.02131   0.00109   0.00001  -0.00001
  16 2   C  1S          0.00000   0.00000   0.00000   0.02097  -0.00950
  17        2S          0.00000   0.00000   0.00000  -0.02089  -0.01309
  18        3S          0.00000   0.00000  -0.00001  -0.14593   0.48336
  19        4PX        -0.00005   0.00004   0.00009  -0.01291   0.05075
  20        4PY         0.00011  -0.00009  -0.00018   0.03342  -0.07391
  21        4PZ         0.17630  -0.14062  -0.28045  -0.00003   0.00006
  22        5PX        -0.00004   0.00008   0.00016  -0.09766   0.19867
  23        5PY         0.00009  -0.00016  -0.00033   0.02603  -0.05744
  24        5PZ         0.14381  -0.24669  -0.50568  -0.00005   0.00010
  25        6XX        -0.00001  -0.00001   0.00001   0.00214  -0.00102
  26        6YY         0.00002   0.00003   0.00000   0.00963  -0.00310
  27        6ZZ        -0.00001  -0.00001  -0.00001   0.00709  -0.00991
  28        6XY         0.00001   0.00001  -0.00001  -0.00956  -0.00156
  29        6XZ         0.01754   0.02739  -0.01953   0.00000   0.00000
  30        6YZ         0.01973   0.02226  -0.00159   0.00000  -0.00001
  31 3   C  1S          0.00000   0.00000   0.00000   0.01962   0.00000
  32        2S          0.00000   0.00000   0.00000  -0.02191  -0.00003
  33        3S          0.00000   0.00001   0.00000  -0.13722   0.00043
  34        4PX        -0.00010  -0.00010   0.00000  -0.01098  -0.00001
  35        4PY         0.00021   0.00020   0.00000   0.00000  -0.02369
  36        4PZ         0.32522   0.31286  -0.00177   0.00000   0.00002
  37        5PX        -0.00008  -0.00017   0.00000   0.02732  -0.00037
  38        5PY         0.00016   0.00035   0.00000   0.00001   0.11584
  39        5PZ         0.24888   0.54225  -0.00307   0.00001  -0.00007
  40        6XX         0.00001  -0.00001   0.00000   0.01263   0.00001
  41        6YY         0.00000   0.00000   0.00004  -0.00606   0.00001
  42        6ZZ        -0.00001   0.00000  -0.00004   0.00611  -0.00001
  43        6XY        -0.00001   0.00001  -0.00001   0.00000  -0.00506
  44        6XZ        -0.01551   0.00878  -0.00005   0.00000   0.00000
  45        6YZ         0.00022   0.00022   0.03919   0.00001   0.00000
  46 4   C  1S          0.00000   0.00000   0.00000   0.02097   0.00951
  47        2S          0.00000   0.00000   0.00000  -0.02088   0.01313
  48        3S          0.00000   0.00000   0.00001  -0.14598  -0.48457
  49        4PX        -0.00006   0.00004  -0.00009  -0.01292  -0.05080
  50        4PY         0.00012  -0.00009   0.00018  -0.03341  -0.07393
  51        4PZ         0.18040  -0.13744   0.28202   0.00002   0.00003
  52        5PX        -0.00005   0.00007  -0.00016  -0.09763  -0.19844
  53        5PY         0.00009  -0.00015   0.00032  -0.02592  -0.05691
  54        5PZ         0.14699  -0.24096   0.50843  -0.00001  -0.00002
  55        6XX        -0.00001  -0.00001  -0.00001   0.00214   0.00100
  56        6YY        -0.00002  -0.00002   0.00000   0.00963   0.00309
  57        6ZZ         0.00003   0.00004   0.00001   0.00710   0.00993
  58        6XY         0.00002   0.00002   0.00001   0.00956  -0.00156
  59        6XZ         0.01724   0.02760   0.01921  -0.00001   0.00000
  60        6YZ        -0.01976  -0.02229  -0.00134   0.00000   0.00000
  61 5   C  1S          0.00000   0.00000   0.00000   0.03832   0.05044
  62        2S          0.00000   0.00000   0.00000  -0.01358  -0.03128
  63        3S          0.00000  -0.00001   0.00000  -0.78987  -1.18160
  64        4PX         0.00004   0.00005   0.00008   0.05361   0.07411
  65        4PY        -0.00009  -0.00011  -0.00017  -0.09777  -0.14340
  66        4PZ        -0.13899  -0.17494  -0.26050   0.00008   0.00011
  67        5PX         0.00003   0.00010   0.00015   0.04309   0.47516
  68        5PY        -0.00007  -0.00021  -0.00031  -0.29000  -0.77039
  69        5PZ        -0.10994  -0.33788  -0.49515   0.00020   0.00064
  70        6XX        -0.00001   0.00001  -0.00001   0.00534   0.01334
  71        6YY         0.00002  -0.00002   0.00000   0.00819  -0.00131
  72        6ZZ        -0.00001   0.00001   0.00001   0.01945   0.01977
  73        6XY         0.00001  -0.00001   0.00002  -0.00539   0.01146
  74        6XZ         0.02138  -0.02510   0.02442   0.00000  -0.00001
  75        6YZ         0.01719  -0.02129   0.00133   0.00001   0.00002
  76 6   C  1S          0.00000   0.00000   0.00000   0.06021  -0.00001
  77        2S          0.00000   0.00000   0.00000  -0.03236   0.00004
  78        3S          0.00000   0.00001   0.00000  -1.13432  -0.00033
  79        4PX         0.00010  -0.00009   0.00000   0.17500  -0.00003
  80        4PY        -0.00020   0.00020   0.00000   0.00000   0.00625
  81        4PZ        -0.31474   0.31301  -0.00177   0.00005   0.00000
  82        5PX         0.00008  -0.00018   0.00000   0.80397  -0.00075
  83        5PY        -0.00017   0.00040   0.00000   0.00010   0.24499
  84        5PZ        -0.26898   0.61608  -0.00349   0.00025  -0.00016
  85        6XX         0.00001   0.00001   0.00000   0.00948   0.00000
  86        6YY         0.00000   0.00000  -0.00004   0.01436  -0.00002
  87        6ZZ        -0.00001  -0.00001   0.00004   0.02630   0.00001
  88        6XY        -0.00001  -0.00001   0.00001   0.00000  -0.00526
  89        6XZ        -0.00978  -0.01370   0.00008  -0.00001   0.00000
  90        6YZ         0.00024  -0.00022  -0.03908   0.00001   0.00000
  91 7   H  1S          0.00000   0.00000   0.00000   0.01786   0.00365
  92        2S          0.00000   0.00000   0.00001   0.83316  -1.63274
  93        3PX         0.00000   0.00000   0.00000   0.00562  -0.00993
  94        3PY         0.00000  -0.00001   0.00001   0.00812  -0.02225
  95        3PZ        -0.00568  -0.00940   0.01483   0.00000   0.00001
  96 8   H  1S          0.00000   0.00000   0.00000   0.02350  -0.00330
  97        2S          0.00000   0.00000  -0.00001   0.27587  -0.45366
  98        3PX         0.00000   0.00000   0.00000   0.00237   0.00316
  99        3PY         0.00000   0.00000  -0.00001  -0.00026  -0.00665
 100        3PZ         0.00627  -0.00742  -0.01421   0.00000   0.00001
 101 9   H  1S          0.00000   0.00000   0.00000   0.02045   0.00001
 102        2S          0.00000   0.00001   0.00000   0.14528   0.00023
 103        3PX         0.00000   0.00000   0.00000   0.00192   0.00000
 104        3PY         0.00001   0.00001   0.00000   0.00000  -0.00520
 105        3PZ         0.01160   0.01529  -0.00009   0.00000   0.00000
 106 10  H  1S          0.00000   0.00000   0.00000   0.02351   0.00329
 107        2S          0.00000   0.00000   0.00001   0.27580   0.45367
 108        3PX         0.00000   0.00000   0.00000   0.00237  -0.00317
 109        3PY         0.00000   0.00000   0.00001   0.00026  -0.00666
 110        3PZ         0.00642  -0.00726   0.01429   0.00000   0.00000
 111 11  H  1S          0.00000   0.00000   0.00000   0.01787  -0.00363
 112        2S          0.00000   0.00000  -0.00001   0.83306   1.63390
 113        3PX         0.00000   0.00000   0.00000   0.00562   0.00993
 114        3PY         0.00000  -0.00001  -0.00001  -0.00812  -0.02225
 115        3PZ        -0.00552  -0.00957  -0.01472   0.00001   0.00002
 116 12  H  1S          0.00000   0.00000   0.00000   0.01427   0.00000
 117        2S          0.00000   0.00001   0.00000   1.60404  -0.00067
 118        3PX         0.00000  -0.00001   0.00000   0.02046   0.00000
 119        3PY        -0.00001   0.00001   0.00000   0.00000   0.00037
 120        3PZ        -0.01240   0.01835  -0.00010   0.00001   0.00000
                          26        27        28        29        30
                           V         V         V         V         V
     Eigenvalues --     0.22800   0.25644   0.27378   0.30418   0.35836
   1 1   C  1S         -0.03240   0.03138  -0.03347   0.00066   0.00000
   2        2S          0.07439  -0.07738   0.05059  -0.06576   0.00000
   3        3S         -0.19616   0.28820   0.45620   1.24608   0.00000
   4        4PX        -0.03667   0.05944  -0.00038  -0.01682  -0.00007
   5        4PY        -0.03098   0.05900  -0.01344   0.01638   0.00014
   6        4PZ         0.00001  -0.00002   0.00001  -0.00001   0.22485
   7        5PX        -0.60581   0.66246  -0.11592   0.34535  -0.00022
   8        5PY        -0.69019   1.25143  -0.49537   0.95190   0.00045
   9        5PZ         0.00026  -0.00060   0.00028  -0.00050   0.72334
  10        6XX        -0.00918   0.02082  -0.01191   0.02867   0.00001
  11        6YY        -0.01912   0.01634   0.00624   0.01371  -0.00001
  12        6ZZ         0.00466  -0.00691  -0.00224  -0.02109   0.00001
  13        6XY         0.00555  -0.02151   0.00808  -0.00120   0.00000
  14        6XZ        -0.00001   0.00002  -0.00001   0.00002  -0.01185
  15        6YZ         0.00002  -0.00002   0.00000  -0.00003  -0.01230
  16 2   C  1S         -0.03400  -0.02649   0.06044  -0.03997   0.00000
  17        2S          0.00061   0.07132  -0.06652   0.11030   0.00000
  18        3S          1.23672  -0.36496  -1.20006  -0.42644  -0.00001
  19        4PX         0.06781   0.03428  -0.04310   0.03751   0.00007
  20        4PY        -0.07184  -0.07969   0.12885  -0.03467  -0.00016
  21        4PZ         0.00007   0.00006  -0.00010   0.00003  -0.24470
  22        5PX        -0.00847   0.38912  -0.43535   0.89378   0.00022
  23        5PY         0.00939  -1.00558   0.84777  -1.11019  -0.00047
  24        5PZ        -0.00001   0.00076  -0.00068   0.00098  -0.74902
  25        6XX         0.01012  -0.02147   0.01598  -0.02374   0.00000
  26        6YY        -0.00233  -0.01343  -0.00655  -0.01696   0.00002
  27        6ZZ        -0.02016   0.00653   0.01382   0.01266  -0.00002
  28        6XY        -0.00039   0.00260   0.00761  -0.01523  -0.00001
  29        6XZ         0.00001  -0.00001   0.00000   0.00000  -0.00452
  30        6YZ        -0.00001   0.00002   0.00002   0.00002   0.01619
  31 3   C  1S         -0.01465  -0.04155  -0.00001   0.07506   0.00000
  32        2S          0.02724  -0.00905   0.00003  -0.15048   0.00000
  33        3S         -0.11075   1.82995  -0.00008  -0.32764   0.00002
  34        4PX         0.08990   0.13894   0.00004  -0.13242  -0.00008
  35        4PY         0.00000   0.00000  -0.03423  -0.00001   0.00016
  36        4PZ         0.00003   0.00005   0.00002  -0.00004   0.25524
  37        5PX         0.49817  -0.06434   0.00044  -1.83226  -0.00022
  38        5PY         0.00015   0.00000  -0.29380  -0.00024   0.00049
  39        5PZ         0.00015  -0.00002   0.00019  -0.00055   0.76201
  40        6XX        -0.01825   0.00742  -0.00001   0.00801  -0.00001
  41        6YY        -0.00544   0.00993  -0.00001   0.03429   0.00000
  42        6ZZ        -0.00091  -0.02727   0.00000  -0.00452   0.00001
  43        6XY         0.00000   0.00000  -0.00912   0.00000   0.00001
  44        6XZ        -0.00001   0.00001   0.00001   0.00000   0.01600
  45        6YZ         0.00000  -0.00003   0.00000  -0.00003   0.00000
  46 4   C  1S         -0.03399  -0.02649  -0.06044  -0.04000   0.00000
  47        2S          0.00061   0.07131   0.06647   0.11031   0.00000
  48        3S          1.23624  -0.36496   1.20053  -0.42549  -0.00001
  49        4PX         0.06779   0.03431   0.04312   0.03753   0.00007
  50        4PY         0.07177   0.07971   0.12885   0.03472  -0.00016
  51        4PZ        -0.00002  -0.00004  -0.00007  -0.00001  -0.24471
  52        5PX        -0.00876   0.38937   0.43513   0.89408   0.00022
  53        5PY        -0.00941   1.00543   0.84718   1.11023  -0.00049
  54        5PZ         0.00000  -0.00053  -0.00041  -0.00045  -0.74901
  55        6XX         0.01013  -0.02147  -0.01597  -0.02374   0.00000
  56        6YY        -0.00233  -0.01343   0.00656  -0.01696  -0.00002
  57        6ZZ        -0.02015   0.00653  -0.01383   0.01265   0.00002
  58        6XY         0.00038  -0.00259   0.00760   0.01524   0.00000
  59        6XZ         0.00001  -0.00001  -0.00001  -0.00002  -0.00451
  60        6YZ        -0.00001   0.00001  -0.00001   0.00003  -0.01619
  61 5   C  1S         -0.03237   0.03137   0.03346   0.00067   0.00000
  62        2S          0.07439  -0.07738  -0.05056  -0.06579   0.00000
  63        3S         -0.19723   0.28871  -0.45673   1.24609   0.00000
  64        4PX        -0.03662   0.05942   0.00039  -0.01684  -0.00007
  65        4PY         0.03090  -0.05897  -0.01343  -0.01636   0.00014
  66        4PZ        -0.00003   0.00006   0.00001   0.00001   0.22484
  67        5PX        -0.60546   0.66212   0.11558   0.34499  -0.00022
  68        5PY         0.68999  -1.25140  -0.49506  -0.95225   0.00047
  69        5PZ        -0.00063   0.00101   0.00035   0.00073   0.72335
  70        6XX        -0.00918   0.02082   0.01190   0.02866   0.00001
  71        6YY        -0.01912   0.01634  -0.00626   0.01372   0.00001
  72        6ZZ         0.00468  -0.00692   0.00225  -0.02110  -0.00002
  73        6XY        -0.00554   0.02150   0.00808   0.00119  -0.00001
  74        6XZ         0.00000   0.00000   0.00000   0.00002  -0.01186
  75        6YZ         0.00002  -0.00001   0.00001  -0.00003   0.01231
  76 6   C  1S          0.04859  -0.02900   0.00000   0.01410   0.00000
  77        2S         -0.06986   0.10423  -0.00002   0.04116   0.00000
  78        3S         -0.46524  -0.77495   0.00017  -1.46090   0.00000
  79        4PX         0.12865  -0.00150   0.00000  -0.01980   0.00007
  80        4PY         0.00000  -0.00001   0.03255   0.00000  -0.00014
  81        4PZ         0.00004   0.00000  -0.00002  -0.00001  -0.21551
  82        5PX         1.55586  -1.20173   0.00026  -0.93474   0.00023
  83        5PY         0.00023  -0.00015   0.15065  -0.00012  -0.00046
  84        5PZ         0.00048  -0.00037  -0.00010  -0.00029  -0.71066
  85        6XX        -0.01054  -0.01262   0.00000  -0.01837  -0.00001
  86        6YY         0.04033  -0.02901   0.00000  -0.02446   0.00000
  87        6ZZ         0.00542   0.01768  -0.00001   0.02121   0.00001
  88        6XY         0.00000   0.00000  -0.01424  -0.00001   0.00001
  89        6XZ        -0.00001  -0.00001   0.00001  -0.00001   0.01662
  90        6YZ        -0.00003   0.00003   0.00000   0.00003   0.00000
  91 7   H  1S         -0.02570   0.00766   0.00549   0.02831   0.00000
  92        2S         -0.97653   1.46009  -0.74131   0.56268  -0.00001
  93        3PX        -0.00211   0.00770  -0.00179  -0.01036  -0.00001
  94        3PY         0.00002   0.00466  -0.00996  -0.00640   0.00001
  95        3PZ         0.00000   0.00000   0.00001   0.00000   0.02034
  96 8   H  1S         -0.00530  -0.03529   0.00625  -0.02364   0.00000
  97        2S         -0.66078  -1.10487   1.68148  -1.39599   0.00001
  98        3PX         0.01107  -0.00142  -0.00695   0.00423   0.00001
  99        3PY        -0.01009   0.00068   0.01917   0.00152  -0.00001
 100        3PZ         0.00001   0.00000  -0.00001   0.00000  -0.01943
 101 9   H  1S         -0.03183  -0.00033  -0.00002   0.03933   0.00000
 102        2S         -0.62459  -0.88413  -0.00047   2.27799  -0.00001
 103        3PX        -0.00180   0.02133   0.00000  -0.00914  -0.00001
 104        3PY         0.00000   0.00000  -0.00444   0.00000   0.00001
 105        3PZ         0.00000   0.00001   0.00000   0.00000   0.01896
 106 10  H  1S         -0.00529  -0.03528  -0.00624  -0.02364   0.00000
 107        2S         -0.66032  -1.10487  -1.68097  -1.39666   0.00001
 108        3PX         0.01107  -0.00141   0.00695   0.00423   0.00001
 109        3PY         0.01008  -0.00067   0.01917  -0.00151  -0.00001
 110        3PZ         0.00000   0.00000  -0.00001   0.00000  -0.01943
 111 11  H  1S         -0.02570   0.00767  -0.00551   0.02832   0.00000
 112        2S         -0.97559   1.45965   0.74109   0.56281  -0.00001
 113        3PX        -0.00210   0.00769   0.00179  -0.01036  -0.00001
 114        3PY        -0.00004  -0.00465  -0.00997   0.00640   0.00001
 115        3PZ         0.00000   0.00001   0.00001  -0.00001   0.02034
 116 12  H  1S         -0.01155  -0.02712  -0.00001  -0.02859   0.00000
 117        2S          1.95748  -1.00474   0.00020  -0.41177   0.00001
 118        3PX         0.02313   0.00382   0.00000   0.01242   0.00001
 119        3PY         0.00000   0.00000   0.00882   0.00000  -0.00001
 120        3PZ         0.00001   0.00000  -0.00001   0.00000  -0.02078
                          31        32        33        34        35
                           V         V         V         V         V
     Eigenvalues --     0.44153   0.44323   0.47795   0.47809   0.59249
   1 1   C  1S         -0.07116   0.03579   0.02559   0.01171   0.02835
   2        2S          0.05949  -0.03091  -0.03900  -0.01980   0.06358
   3        3S          2.76357  -1.02578  -1.30674  -1.23489  -0.24763
   4        4PX         0.03414   0.00547  -0.17047   0.05069  -0.01673
   5        4PY         0.15164  -0.07890   0.02179  -0.09491   0.03301
   6        4PZ        -0.00009   0.00005  -0.00007   0.00007  -0.00002
   7        5PX         0.93977   0.91794  -1.65443   1.27097  -0.16256
   8        5PY         1.22537  -1.40310   0.52328  -0.58285   0.11113
   9        5PZ        -0.00050   0.00118  -0.00084   0.00076  -0.00013
  10        6XX         0.02508  -0.02030  -0.00028   0.00114   0.03401
  11        6YY         0.03246   0.00468  -0.03507  -0.03295   0.13661
  12        6ZZ        -0.01821   0.00611   0.00729   0.00751  -0.05058
  13        6XY        -0.01140   0.00866  -0.02460  -0.04714   0.10678
  14        6XZ         0.00002  -0.00001   0.00001   0.00003  -0.00004
  15        6YZ        -0.00004   0.00000   0.00002   0.00002  -0.00011
  16 2   C  1S          0.05402   0.03682  -0.01074   0.04562   0.01924
  17        2S         -0.03822  -0.02224   0.00886  -0.05238   0.05300
  18        3S         -1.74121  -1.55800   0.79568  -2.29328   0.01555
  19        4PX         0.10147   0.07754  -0.16400  -0.01522  -0.03045
  20        4PY        -0.08210  -0.06034  -0.05509  -0.14272  -0.00974
  21        4PZ         0.00008   0.00006  -0.00001   0.00009   0.00000
  22        5PX         1.35861   0.15136  -1.76961  -0.42336  -0.20757
  23        5PY        -0.82339  -0.98097  -1.10695  -0.94018  -0.05253
  24        5PZ         0.00094   0.00068   0.00017   0.00048  -0.00003
  25        6XX        -0.02632  -0.02761  -0.01501  -0.00845   0.02252
  26        6YY        -0.01041  -0.00584   0.02408  -0.03674   0.12993
  27        6ZZ         0.01415   0.01175  -0.00284   0.01110  -0.04776
  28        6XY        -0.02053   0.00070  -0.01276   0.04053  -0.10222
  29        6XZ         0.00000  -0.00001   0.00000  -0.00003   0.00009
  30        6YZ         0.00001   0.00001  -0.00002   0.00005  -0.00016
  31 3   C  1S          0.00023  -0.05619  -0.05426  -0.00242   0.01412
  32        2S         -0.00015   0.03345   0.05346   0.00237   0.04920
  33        3S         -0.00761   1.91636   2.68393   0.11957   0.16344
  34        4PX         0.00062  -0.14495  -0.13898  -0.00616  -0.00169
  35        4PY         0.01579   0.00006   0.00900  -0.20338  -0.00009
  36        4PZ        -0.00001  -0.00004  -0.00005   0.00013   0.00001
  37        5PX         0.00689  -1.64887  -0.70170  -0.03120  -0.08894
  38        5PY        -0.47360  -0.00244   0.09863  -2.21430   0.00038
  39        5PZ         0.00031  -0.00050  -0.00028   0.00141  -0.00003
  40        6XX         0.00000   0.00130   0.05917   0.00262   0.17455
  41        6YY        -0.00019   0.04392  -0.01552  -0.00070  -0.03072
  42        6ZZ         0.00007  -0.01739  -0.01192  -0.00053  -0.04635
  43        6XY        -0.00960  -0.00003   0.00072  -0.01594   0.00001
  44        6XZ         0.00001   0.00001   0.00002   0.00001   0.00008
  45        6YZ         0.00000  -0.00005   0.00000   0.00000  -0.00001
  46 4   C  1S         -0.05431   0.03636  -0.00664  -0.04641   0.01922
  47        2S          0.03838  -0.02193   0.00417   0.05295   0.05297
  48        3S          1.75416  -1.54283   0.58844   2.35514   0.01578
  49        4PX        -0.10212   0.07675  -0.16474   0.00051  -0.03058
  50        4PY        -0.08258   0.05964   0.06763  -0.13725   0.00986
  51        4PZ         0.00002  -0.00002  -0.00009   0.00009  -0.00001
  52        5PX        -1.36014   0.14059  -1.79972   0.26413  -0.20795
  53        5PY        -0.83099   0.97365   1.18646  -0.83811   0.05246
  54        5PZ         0.00012  -0.00058  -0.00131   0.00062  -0.00010
  55        6XX         0.02654  -0.02739  -0.01569   0.00709   0.02252
  56        6YY         0.01047  -0.00573   0.02070   0.03871   0.12990
  57        6ZZ        -0.01424   0.01163  -0.00184  -0.01131  -0.04777
  58        6XY        -0.02052  -0.00086   0.00911   0.04149   0.10228
  59        6XZ         0.00003  -0.00001  -0.00001  -0.00002  -0.00004
  60        6YZ        -0.00002   0.00001  -0.00001  -0.00002  -0.00010
  61 5   C  1S          0.07087   0.03639   0.02652  -0.00937   0.02837
  62        2S         -0.05926  -0.03140  -0.04059   0.01624   0.06361
  63        3S         -2.75496  -1.04934  -1.41124   1.11351  -0.24799
  64        4PX        -0.03416   0.00523  -0.16518  -0.06570  -0.01674
  65        4PY         0.15099   0.08016  -0.01321  -0.09646  -0.03302
  66        4PZ        -0.00011  -0.00005  -0.00004   0.00004   0.00002
  67        5PX        -0.94734   0.91069  -1.53475  -1.41316  -0.16310
  68        5PY         1.21392   1.41350  -0.46913  -0.62660  -0.11105
  69        5PZ        -0.00107  -0.00063  -0.00017  -0.00003   0.00002
  70        6XX        -0.02492  -0.02051  -0.00016  -0.00117   0.03402
  71        6YY        -0.03250   0.00440  -0.03788   0.02972   0.13662
  72        6ZZ         0.01816   0.00627   0.00793  -0.00684  -0.05057
  73        6XY        -0.01132  -0.00875   0.02869  -0.04479  -0.10673
  74        6XZ        -0.00001   0.00000  -0.00002   0.00003   0.00010
  75        6YZ         0.00003   0.00000   0.00004  -0.00004  -0.00017
  76 6   C  1S          0.00036  -0.08603   0.00724   0.00032   0.03227
  77        2S         -0.00036   0.08127  -0.02419  -0.00108   0.07058
  78        3S         -0.01333   3.23004  -1.26024  -0.05591  -0.35966
  79        4PX        -0.00074   0.16918  -0.06156  -0.00272   0.02864
  80        4PY         0.02501   0.00013   0.00856  -0.19358   0.00002
  81        4PZ        -0.00002   0.00005  -0.00003   0.00012   0.00002
  82        5PX        -0.00726   1.72961   0.19184   0.00863   0.00401
  83        5PY         1.80037   0.00795   0.09497  -2.12882  -0.00017
  84        5PZ        -0.00116   0.00052   0.00000   0.00137   0.00000
  85        6XX        -0.00012   0.02755  -0.07943  -0.00352   0.19711
  86        6YY        -0.00017   0.03808   0.03384   0.00151  -0.01685
  87        6ZZ         0.00008  -0.01918   0.00989   0.00044  -0.05195
  88        6XY        -0.01098  -0.00004  -0.00014   0.00315   0.00000
  89        6XZ         0.00001   0.00002  -0.00003   0.00000   0.00009
  90        6YZ         0.00000  -0.00004  -0.00002   0.00000  -0.00003
  91 7   H  1S          0.05186   0.02930  -0.11562  -0.16853   0.37011
  92        2S          0.85895  -0.40625  -0.13843   0.16442  -0.25581
[...]
 102        2S          0.07547   0.03615
 103        3PX         0.00000   0.00000   0.00280
 104        3PY         0.00000   0.00000   0.00000   0.00028
 105        3PZ         0.00000   0.00000   0.00000   0.00000   0.00035
 106 10  H  1S         -0.00015  -0.00182   0.00000  -0.00002   0.00000
 107        2S         -0.00193  -0.00308  -0.00005  -0.00011   0.00000
 108        3PX        -0.00001  -0.00002   0.00000   0.00000   0.00000
 109        3PY        -0.00001  -0.00011   0.00000   0.00000   0.00000
 110        3PZ         0.00000   0.00000   0.00000   0.00000   0.00000
 111 11  H  1S          0.00000  -0.00001   0.00000   0.00000   0.00000
 112        2S         -0.00002  -0.00013   0.00000   0.00000   0.00000
 113        3PX         0.00000   0.00000   0.00000   0.00000   0.00000
 114        3PY         0.00000   0.00000   0.00000   0.00000   0.00000
 115        3PZ         0.00000   0.00000   0.00000   0.00000   0.00000
 116 12  H  1S          0.00000   0.00000   0.00000   0.00000   0.00000
 117        2S          0.00000   0.00004   0.00000   0.00000   0.00000
 118        3PX         0.00000   0.00000   0.00000   0.00000   0.00000
 119        3PY         0.00000   0.00000   0.00000   0.00000   0.00000
 120        3PZ         0.00000   0.00000   0.00000   0.00000   0.00000
                         106       107       108       109       110
 106 10  H  1S          0.38029
 107        2S          0.08429   0.04457
 108        3PX         0.00000   0.00000   0.00093
 109        3PY         0.00000   0.00000   0.00000   0.00205
 110        3PZ         0.00000   0.00000   0.00000   0.00000   0.00037
 111 11  H  1S         -0.00015  -0.00193  -0.00002   0.00000   0.00000
 112        2S         -0.00215  -0.00385  -0.00019   0.00000   0.00000
 113        3PX        -0.00002  -0.00014   0.00000   0.00000   0.00000
 114        3PY         0.00000   0.00000   0.00000   0.00000   0.00000
 115        3PZ         0.00000   0.00000   0.00000   0.00000   0.00000
 116 12  H  1S          0.00000  -0.00001   0.00000   0.00000   0.00000
 117        2S         -0.00002  -0.00016   0.00000   0.00000   0.00000
 118        3PX         0.00000   0.00000   0.00000   0.00000   0.00000
 119        3PY         0.00000   0.00000   0.00000   0.00000   0.00000
 120        3PZ         0.00000   0.00000   0.00000   0.00000   0.00000
                         111       112       113       114       115
 111 11  H  1S          0.38745
 112        2S          0.10394   0.06635
 113        3PX         0.00000   0.00000   0.00080
 114        3PY         0.00000   0.00000   0.00000   0.00200
 115        3PZ         0.00000   0.00000   0.00000   0.00000   0.00042
 116 12  H  1S         -0.00015  -0.00217  -0.00001  -0.00001   0.00000
 117        2S         -0.00227  -0.00481  -0.00005  -0.00015   0.00000
 118        3PX         0.00000  -0.00005   0.00000   0.00000   0.00000
 119        3PY        -0.00002  -0.00013   0.00000   0.00000   0.00000
 120        3PZ         0.00000   0.00000   0.00000   0.00000   0.00000
                         116       117       118       119       120
 116 12  H  1S          0.39094
 117        2S          0.11490   0.08031
 118        3PX         0.00000   0.00000   0.00243
 119        3PY         0.00000   0.00000   0.00000   0.00028
 120        3PZ         0.00000   0.00000   0.00000   0.00000   0.00045
     Gross orbital populations:
                           1
   1 1   C  1S          1.99722
   2        2S          0.66560
   3        3S          0.42338
   4        4PX         0.74647
   5        4PY         0.71859
   6        4PZ         0.53521
   7        5PX         0.20896
   8        5PY         0.18287
   9        5PZ         0.46057
  10        6XX         0.03099
  11        6YY         0.02182
  12        6ZZ        -0.01189
  13        6XY         0.03036
  14        6XZ         0.01297
  15        6YZ         0.00774
  16 2   C  1S          1.99723
  17        2S          0.66894
  18        3S          0.43016
  19        4PX         0.74239
  20        4PY         0.73647
  21        4PZ         0.51815
  22        5PX         0.18456
  23        5PY         0.21445
  24        5PZ         0.43363
  25        6XX         0.03134
  26        6YY         0.02310
  27        6ZZ        -0.01195
  28        6XY         0.02897
  29        6XZ         0.01233
  30        6YZ         0.00790
  31 3   C  1S          1.99724
  32        2S          0.67075
  33        3S          0.43354
  34        4PX         0.73567
  35        4PY         0.74999
  36        4PZ         0.50949
  37        5PX         0.21345
  38        5PY         0.18764
  39        5PZ         0.42041
  40        6XX         0.02102
  41        6YY         0.03833
  42        6ZZ        -0.01198
  43        6XY         0.02414
  44        6XZ         0.00613
  45        6YZ         0.01390
  46 4   C  1S          1.99723
  47        2S          0.66894
  48        3S          0.43015
  49        4PX         0.74238
  50        4PY         0.73647
  51        4PZ         0.51815
  52        5PX         0.18458
  53        5PY         0.21448
  54        5PZ         0.43364
  55        6XX         0.03134
  56        6YY         0.02310
  57        6ZZ        -0.01195
  58        6XY         0.02897
  59        6XZ         0.01233
  60        6YZ         0.00790
  61 5   C  1S          1.99722
  62        2S          0.66560
  63        3S          0.42339
  64        4PX         0.74648
  65        4PY         0.71860
  66        4PZ         0.53520
  67        5PX         0.20895
  68        5PY         0.18284
  69        5PZ         0.46057
  70        6XX         0.03099
  71        6YY         0.02182
  72        6ZZ        -0.01189
  73        6XY         0.03036
  74        6XZ         0.01297
  75        6YZ         0.00774
  76 6   C  1S          1.99722
  77        2S          0.66405
  78        3S          0.41999
  79        4PX         0.70175
  80        4PY         0.75625
  81        4PZ         0.54377
  82        5PX         0.18285
  83        5PY         0.20353
  84        5PZ         0.47439
  85        6XX         0.02117
  86        6YY         0.03889
  87        6ZZ        -0.01185
  88        6XY         0.02296
  89        6XZ         0.00476
  90        6YZ         0.01622
  91 7   H  1S          0.76493
  92        2S          0.20395
  93        3PX         0.00798
  94        3PY         0.01736
  95        3PZ         0.00593
  96 8   H  1S          0.75374
  97        2S          0.16511
  98        3PX         0.00873
  99        3PY         0.01792
 100        3PZ         0.00538
 101 9   H  1S          0.74801
 102        2S          0.14777
 103        3PX         0.02372
 104        3PY         0.00360
 105        3PZ         0.00512
 106 10  H  1S          0.75375
 107        2S          0.16511
 108        3PX         0.00874
 109        3PY         0.01791
 110        3PZ         0.00538
 111 11  H  1S          0.76493
 112        2S          0.20394
 113        3PX         0.00797
 114        3PY         0.01736
 115        3PZ         0.00593
 116 12  H  1S          0.77036
 117        2S          0.22571
 118        3PX         0.02090
 119        3PY         0.00380
 120        3PZ         0.00622
          Condensed to atoms (all electrons):
               1          2          3          4          5          6
     1  C    4.724606   0.547184  -0.051455  -0.034990  -0.048515   0.542980
     2  C    0.547184   4.680690   0.553812  -0.052253  -0.034973  -0.049616
     3  C   -0.051455   0.553812   4.658672   0.553851  -0.051439  -0.035042
     4  C   -0.034990  -0.052253   0.553851   4.680706   0.547184  -0.049633
     5  C   -0.048515  -0.034973  -0.051439   0.547184   4.724602   0.542932
     6  C    0.542980  -0.049616  -0.035042  -0.049633   0.542932   4.746717
     7  H    0.420556  -0.033643   0.006198  -0.000533   0.006321  -0.045096
     8  H   -0.037896   0.425031  -0.028113   0.005715  -0.000401   0.005827
     9  H    0.005533  -0.030260   0.425782  -0.030247   0.005534  -0.000347
    10  H   -0.000401   0.005716  -0.028109   0.425026  -0.037905   0.005829
    11  H    0.006319  -0.000534   0.006196  -0.033633   0.420568  -0.045100
    12  H   -0.043059   0.006508  -0.000617   0.006508  -0.043074   0.416484
               7          8          9         10         11         12
     1  C    0.420556  -0.037896   0.005533  -0.000401   0.006319  -0.043059
     2  C   -0.033643   0.425031  -0.030260   0.005716  -0.000534   0.006508
     3  C    0.006198  -0.028113   0.425782  -0.028109   0.006196  -0.000617
     4  C   -0.000533   0.005715  -0.030247   0.425026  -0.033633   0.006508
     5  C    0.006321  -0.000401   0.005534  -0.037905   0.420568  -0.043074
     6  C   -0.045096   0.005827  -0.000347   0.005829  -0.045100   0.416484
     7  H    0.664925  -0.008451  -0.000161   0.000038  -0.000201  -0.009806
     8  H   -0.008451   0.596768  -0.007307  -0.000149   0.000038  -0.000187
     9  H   -0.000161  -0.007307   0.567143  -0.007312  -0.000161   0.000038
    10  H    0.000038  -0.000149  -0.007312   0.596786  -0.008451  -0.000188
    11  H   -0.000201   0.000038  -0.000161  -0.008451   0.664889  -0.009799
    12  H   -0.009806  -0.000187   0.000038  -0.000188  -0.009799   0.704196
 Mulliken charges:
               1
     1  C   -0.030863
     2  C   -0.017662
     3  C   -0.009736
     4  C   -0.017701
     5  C   -0.030832
     6  C   -0.035935
     7  H   -0.000146
     8  H    0.049124
     9  H    0.071766
    10  H    0.049120
    11  H   -0.000131
    12  H   -0.027004
 Sum of Mulliken charges =   0.00000
 Mulliken charges with hydrogens summed into heavy atoms:
               1
     1  C   -0.031009
     2  C    0.031462
     3  C    0.062030
     4  C    0.031419
     5  C   -0.030962
     6  C   -0.062940
 Electronic spatial extent (au):  <R**2>=            655.0828
 Charge=              0.0000 electrons
 Dipole moment (field-independent basis, Debye):
    X=              1.8463    Y=              0.0000    Z=              0.0004  Tot=              1.8463
 Quadrupole moment (field-independent basis, Debye-Ang):
   XX=            -30.0056   YY=            -31.7547   ZZ=            -40.4667
   XY=              1.8993   XZ=              0.0019   YZ=             -0.0052
 Traceless Quadrupole moment (field-independent basis, Debye-Ang):
   XX=              4.0701   YY=              2.3210   ZZ=             -6.3910
   XY=              1.8993   XZ=              0.0019   YZ=             -0.0052
 Octapole moment (field-independent basis, Debye-Ang**2):
  XXX=            -35.3880  YYY=            -98.0249  ZZZ=              0.0606  XYY=            -10.2616
  XXY=            -30.8755  XXZ=              0.0195  XZZ=            -18.7249  YZZ=            -41.6394
  YYZ=              0.0052  XYZ=             -0.0022
 Hexadecapole moment (field-independent basis, Debye-Ang**3):
 XXXX=           -297.5164 YYYY=           -473.1144 ZZZZ=            -46.4727 XXXY=            -36.4063
 XXXZ=             -0.0024 YYYX=            -35.6986 YYYZ=              0.0849 ZZZX=             -0.0159
 ZZZY=              0.1549 XXYY=           -126.6349 XXZZ=            -72.1912 YYZZ=           -106.3568
 XXYZ=              0.0347 YYXZ=             -0.0084 ZZXY=            -19.2656
 N-N= 2.025334968734D+02 E-N=-9.419711429712D+02  KE= 2.301247815032D+02
 Orbital energies and kinetic energies (alpha):
                                 1                 2
   1         O               -11.241101         16.006322
   2         O               -11.236708         16.008656
   3         O               -11.236539         16.013384
   4         O               -11.228286         16.007738
   5         O               -11.228130         16.010805
   6         O               -11.223838         16.014285
   7         O                -1.137019          1.437803
   8         O                -1.002369          1.553535
   9         O                -1.002183          1.553033
  10         O                -0.811448          1.425693
  11         O                -0.811223          1.427088
  12         O                -0.694968          0.912904
  13         O                -0.631916          1.254462
  14         O                -0.604620          1.442990
  15         O                -0.574581          1.169682
  16         O                -0.573915          1.168698
  17         O                -0.488881          0.875329
  18         O                -0.480847          1.360509
  19         O                -0.480298          1.360849
  20         O                -0.324070          1.029448
  21         O                -0.323350          1.029178
  22         V                 0.144906          1.144643
  23         V                 0.145609          1.144793
  24         V                 0.174097          0.607081
  25         V                 0.218997          0.590972
  26         V                 0.228003          0.619683
  27         V                 0.256441          0.616628
  28         V                 0.273780          0.666864
  29         V                 0.304184          0.681877
  30         V                 0.358365          1.317452
  31         V                 0.441529          1.174754
  32         V                 0.443234          1.172146
  33         V                 0.477948          1.224565
  34         V                 0.478087          1.223132
  35         V                 0.592493          1.343404
  36         V                 0.595573          1.302857
  37         V                 0.670264          1.262378
  38         V                 0.676044          2.384603
  39         V                 0.688247          1.844118
  40         V                 0.719870          1.785479
  41         V                 0.721029          1.788134
  42         V                 0.740910          1.831680
  43         V                 0.742688          1.831016
  44         V                 0.744917          2.189775
  45         V                 0.745776          2.213770
  46         V                 0.750059          1.373524
  47         V                 0.831109          2.117913
  48         V                 0.832499          2.112521
  49         V                 0.849183          1.807662
  50         V                 0.850424          1.805541
  51         V                 0.894555          2.250914
  52         V                 0.895108          2.239698
  53         V                 0.919532          2.340433
  54         V                 0.985712          2.592508
  55         V                 0.992149          1.946604
  56         V                 1.058310          1.651591
  57         V                 1.086602          2.178710
  58         V                 1.089009          2.143493
  59         V                 1.132787          2.839182
  60         V                 1.159388          1.795620
  61         V                 1.193744          1.806804
  62         V                 1.194351          1.793502
  63         V                 1.249976          1.989925
  64         V                 1.250067          1.988673
  65         V                 1.252020          1.845833
  66         V                 1.252344          1.845717
  67         V                 1.299089          2.385297
  68         V                 1.326263          1.958432
  69         V                 1.326507          1.958383
  70         V                 1.477113          2.133005
  71         V                 1.521830          2.158055
  72         V                 1.522127          2.158407
  73         V                 1.726484          2.467510
  74         V                 1.745825          2.324642
  75         V                 1.749513          2.340094
  76         V                 1.777298          2.213676
  77         V                 1.795925          2.480447
  78         V                 1.863936          2.600532
  79         V                 1.864460          2.599562
  80         V                 1.892508          2.694500
  81         V                 1.892790          2.693176
  82         V                 1.904230          2.331598
  83         V                 1.939513          2.783584
  84         V                 1.959651          2.385933
  85         V                 1.962547          2.383733
  86         V                 1.962782          2.539365
  87         V                 1.963473          2.537813
  88         V                 2.095285          2.825436
  89         V                 2.095626          2.824505
  90         V                 2.124506          2.664563
  91         V                 2.150015          3.558133
  92         V                 2.151330          3.585297
  93         V                 2.161170          3.473702
  94         V                 2.163131          3.410104
  95         V                 2.177358          3.145931
  96         V                 2.271089          2.747459
  97         V                 2.271329          2.746927
  98         V                 2.280123          3.098527
  99         V                 2.282911          3.069091
 100         V                 2.334387          3.533657
 101         V                 2.502909          3.108141
 102         V                 2.564914          3.132212
 103         V                 2.658059          4.286628
 104         V                 2.736867          4.330624
 105         V                 2.737083          4.331017
 106         V                 2.768088          5.029892
 107         V                 2.768150          5.011987
 108         V                 2.827457          4.227102
 109         V                 2.828004          4.228256
 110         V                 2.879538          6.447378
 111         V                 3.007262          4.223660
 112         V                 3.111546          5.946250
 113         V                 3.113593          6.057755
 114         V                 3.135612          4.530352
 115         V                 3.178794          5.481247
 116         V                 3.178837          5.481155
 117         V                 3.637198          6.921296
 118         V                 3.637244          6.921328
 119         V                 3.834841          6.332410
 120         V                 4.506504          8.287948
 Total kinetic energy from orbitals= 2.301247815032D+02
 Unable to Open any file for archive entry.
 1\1\GINC-MEDUSA\SP\RHF\CC-pVDZ\C6H6\PLESTRAN\26-Oct-2015\0\\# hf/cc-pV
 DZ gfinput pop=full nosymm 6D Field=X-100\\Benzene cc-pVDZ\\0,1\C,0,-0
 .2069851582,-0.182179772,0.0000714421\C,0,1.1916738876,-0.1823529436,0
 .0004985861\C,0,1.8910553573,1.0288676731,-0.0000660445\C,0,1.19173498
 68,2.2401336715,-0.0010564977\C,0,-0.206924055,2.2403068493,-0.0014838
 269\C,0,-0.9063055337,1.0290862369,-0.0009191682\H,0,-0.750746176,-1.1
 238955859,0.0005098114\H,0,1.7352854346,-1.124149144,0.0012705069\H,0,
 2.9784784245,1.0289339946,0.0002669247\H,0,1.7354959994,3.1818494841,-
 0.0014954845\H,0,-0.7505356043,3.1821030485,-0.0022553738\H,0,-1.99372
 86031,1.0290199075,-0.0012518757\\Version=ES64L-GDVRevI.03+\HF=-230.72
 59728\EFC=0.\RMSD=9.465e-09\Dipole=0.7263829,-0.0000116,0.0001428\Quad
 rupole=3.0260068,1.7255769,-4.7515837,1.412108,0.001426,-0.0038839\PG=
 CI [X(C6H6)]\\@
 The archive entry for this job was punched.


 Boundary, n.  In political geography, an imaginary
 line between two nations, separating the imaginary
 rights of one from the imaginary rights of another.
                               -- Ambrose Bierce
 Job cpu time:       0 days  0 hours  0 minutes  3.5 seconds.
 Elapsed time:       0 days  0 hours  0 minutes  3.4 seconds.
 File lengths (MBytes):  RWF=     10 Int=      0 D2E=      0 Chk=      2 Scr=      1
 Normal termination of Gaussian DV at Mon Oct 26 18:16:57 2015.
