 Entering Gaussian System, Link 0=gdv
 Input=benzene_6-31G_CIS.com
 Output=benzene_6-31G_CIS.log
 Initial command:
 /home/gauss/gdvi03p/gdv/l1.exe "/home/GauScr/Gau-10794.inp" -scrdir="/home/GauScr/"
 Entering Link 1 = /home/gauss/gdvi03p/gdv/l1.exe PID=     10795.
  
 Copyright (c) 1988,1990,1992,1993,1995,1998,2003,2009,2015,
            Gaussian, Inc.  All Rights Reserved.
  
 This is the private, development version of
 the Gaussian(R) DV system of programs. It is based on
 the Gaussian(R) 09 system (copyright 2009, Gaussian, Inc.),
 the Gaussian(R) 03 system (copyright 2003, Gaussian, Inc.),
 the Gaussian(R) 98 system (copyright 1998, Gaussian, Inc.),
 the Gaussian(R) 94 system (copyright 1995, Gaussian, Inc.),
 the Gaussian 92(TM) system (copyright 1992, Gaussian, Inc.),
 the Gaussian 90(TM) system (copyright 1990, Gaussian, Inc.),
 the Gaussian 88(TM) system (copyright 1988, Gaussian, Inc.),
 the Gaussian 86(TM) system (copyright 1986, Carnegie Mellon
 University), and the Gaussian 82(TM) system (copyright 1983,
 Carnegie Mellon University). Gaussian is a federally registered
 trademark of Gaussian, Inc.
  
 This software contains proprietary and confidential information,
 including trade secrets, belonging to Gaussian, Inc.
  
 This software is provided under written license and may be
 used, copied, transmitted, or stored only in accord with that
 written license.
  
 The following legend is applicable only to US Government
 contracts under FAR:
  
                    RESTRICTED RIGHTS LEGEND
  
 Use, reproduction and disclosure by the US Government is
 subject to restrictions as set forth in subparagraphs (a)
 and (c) of the Commercial Computer Software - Restricted
 Rights clause in FAR 52.227-19.
  
 Gaussian, Inc.
 340 Quinnipiac St., Bldg. 40, Wallingford CT 06492
  
  
 ---------------------------------------------------------------
 Warning -- This program may not be used in any manner that
 competes with the business of Gaussian, Inc. or will provide
 assistance to any competitor of Gaussian, Inc.  The licensee
 of this program is prohibited from giving any competitor of
 Gaussian, Inc. access to this program.  By using this program,
 the user acknowledges that Gaussian, Inc. is engaged in the
 business of creating and licensing software in the field of
 computational chemistry and represents and warrants to the
 licensee that it is not a competitor of Gaussian, Inc. and that
 it will not use this program in any manner prohibited above.
 ---------------------------------------------------------------
  

 Cite this work as:
 Gaussian Development Version, Revision I.03+,
 M. J. Frisch, G. W. Trucks, H. B. Schlegel, G. E. Scuseria, 
 M. A. Robb, J. R. Cheeseman, G. Scalmani, V. Barone, B. Mennucci, 
 G. A. Petersson, H. Nakatsuji, M. Caricato, X. Li, H. P. Hratchian, 
 J. Bloino, B. G. Janesko, A. F. Izmaylov, A. Marenich, F. Lipparini, 
 G. Zheng, J. L. Sonnenberg, W. Liang, M. Hada, M. Ehara, K. Toyota, 
 R. Fukuda, J. Hasegawa, M. Ishida, T. Nakajima, Y. Honda, O. Kitao, 
 H. Nakai, T. Vreven, K. Throssell, J. A. Montgomery, Jr., 
 J. E. Peralta, F. Ogliaro, M. Bearpark, J. J. Heyd, E. Brothers, 
 K. N. Kudin, V. N. Staroverov, T. Keith, R. Kobayashi, J. Normand, 
 K. Raghavachari, A. Rendell, J. C. Burant, S. S. Iyengar, J. Tomasi, 
 M. Cossi, N. Rega, J. M. Millam, M. Klene, J. E. Knox, J. B. Cross, 
 V. Bakken, C. Adamo, J. Jaramillo, R. Gomperts, R. E. Stratmann, 
 O. Yazyev, A. J. Austin, R. Cammi, C. Pomelli, J. W. Ochterski, 
 R. L. Martin, K. Morokuma, V. G. Zakrzewski, G. A. Voth, 
 P. Salvador, J. J. Dannenberg, S. Dapprich, P. V. Parandekar, 
 N. J. Mayhall, A. D. Daniels, O. Farkas, J. B. Foresman, 
 J. V. Ortiz, J. Cioslowski, and D. J. Fox, 
 Gaussian, Inc., Wallingford CT, 2014.
 
 *******************************************
 Gaussian DV:  ES64L-GDVRevI.03+  2-May-2015
                 26-Oct-2015 
 *******************************************
 -------------------------------------------------------------
 # hf/6-31G gfinput pop=full nosymm cis(full,nstates=12,50-50)
 -------------------------------------------------------------
 1/38=1,172=1/1;
 2/12=2,15=1,17=6,18=5,40=1/2;
 3/5=1,6=6,11=9,24=10,25=1,30=1/1,2,3,8;
 4//1;
 5/5=2,38=5/2;
 8/6=1,10=90,108=12/1,4;
 9/41=12,42=3,48=2/14;
 6/7=3/1;
 99/5=1,9=1/99;
 -------------
 Benzene 6-31G
 -------------
 Symbolic Z-matrix:
 Charge =  0 Multiplicity = 1
 C                    -0.20699  -0.18218   0.00007 
 C                     1.19167  -0.18235   0.0005 
 C                     1.89106   1.02887  -0.00007 
 C                     1.19173   2.24013  -0.00106 
 C                    -0.20692   2.24031  -0.00148 
 C                    -0.90631   1.02909  -0.00092 
 H                    -0.75075  -1.1239    0.00051 
 H                     1.73529  -1.12415   0.00127 
 H                     2.97848   1.02893   0.00027 
 H                     1.7355    3.18185  -0.0015 
 H                    -0.75054   3.1821   -0.00226 
 H                    -1.99373   1.02902  -0.00125 
 
                          Input orientation:                          
 ---------------------------------------------------------------------
 Center     Atomic      Atomic             Coordinates (Angstroms)
 Number     Number       Type             X           Y           Z
 ---------------------------------------------------------------------
      1          6           0       -0.206985   -0.182180    0.000071
      2          6           0        1.191674   -0.182353    0.000499
      3          6           0        1.891055    1.028868   -0.000066
      4          6           0        1.191735    2.240134   -0.001056
      5          6           0       -0.206924    2.240307   -0.001484
      6          6           0       -0.906306    1.029086   -0.000919
      7          1           0       -0.750746   -1.123896    0.000510
      8          1           0        1.735285   -1.124149    0.001271
      9          1           0        2.978478    1.028934    0.000267
     10          1           0        1.735496    3.181849   -0.001495
     11          1           0       -0.750536    3.182103   -0.002255
     12          1           0       -1.993729    1.029020   -0.001252
 ---------------------------------------------------------------------
                    Distance matrix (angstroms):
                    1          2          3          4          5
     1  C    0.000000
     2  C    1.398659   0.000000
     3  C    2.422480   1.398639   0.000000
     4  C    2.797145   2.422487   1.398648   0.000000
     5  C    2.422487   2.797385   2.422623   1.398659   0.000000
     6  C    1.398648   2.422623   2.797361   2.422480   1.398639
     7  H    1.087430   2.158587   3.407859   3.884576   3.407874
     8  H    2.158639   1.087425   2.158645   3.407910   3.884810
     9  H    3.407928   2.158677   1.087423   2.158578   3.407964
    10  H    3.884576   3.407874   2.158595   1.087430   2.158587
    11  H    3.407910   3.884810   3.407995   2.158639   1.087425
    12  H    2.158578   3.407964   3.884784   3.407928   2.158677
                    6          7          8          9         10
     6  C    0.000000
     7  H    2.158595   0.000000
     8  H    3.407995   2.486032   0.000000
     9  H    3.884784   4.306018   2.486221   0.000000
    10  H    3.407859   4.972006   4.306000   2.485971   0.000000
    11  H    2.158645   4.306000   4.972236   4.306006   2.486032
    12  H    1.087423   2.485971   4.306006   4.972207   4.306018
                   11         12
    11  H    0.000000
    12  H    2.486221   0.000000
 Symmetry turned off by external request.
 Stoichiometry    C6H6
 Framework group  CI[X(C6H6)]
 Deg. of freedom    15
 Full point group                 CI      NOp   2
 Rotational constants (GHZ):      5.6717105      5.6710222      2.8356832
 Standard basis: 6-31G (6D, 7F)
 AO basis set in the form of general basis input (Overlap normalization):
      1 0
 S   6 1.00       0.000000000000
      0.3047524880D+04  0.1834737132D-02
      0.4573695180D+03  0.1403732281D-01
      0.1039486850D+03  0.6884262226D-01
      0.2921015530D+02  0.2321844432D+00
      0.9286662960D+01  0.4679413484D+00
      0.3163926960D+01  0.3623119853D+00
 SP   3 1.00       0.000000000000
      0.7868272350D+01 -0.1193324198D+00  0.6899906659D-01
      0.1881288540D+01 -0.1608541517D+00  0.3164239610D+00
      0.5442492580D+00  0.1143456438D+01  0.7443082909D+00
 SP   1 1.00       0.000000000000
      0.1687144782D+00  0.1000000000D+01  0.1000000000D+01
 ****
      2 0
 S   6 1.00       0.000000000000
      0.3047524880D+04  0.1834737132D-02
      0.4573695180D+03  0.1403732281D-01
      0.1039486850D+03  0.6884262226D-01
      0.2921015530D+02  0.2321844432D+00
      0.9286662960D+01  0.4679413484D+00
      0.3163926960D+01  0.3623119853D+00
 SP   3 1.00       0.000000000000
      0.7868272350D+01 -0.1193324198D+00  0.6899906659D-01
      0.1881288540D+01 -0.1608541517D+00  0.3164239610D+00
      0.5442492580D+00  0.1143456438D+01  0.7443082909D+00
 SP   1 1.00       0.000000000000
      0.1687144782D+00  0.1000000000D+01  0.1000000000D+01
 ****
      3 0
 S   6 1.00       0.000000000000
      0.3047524880D+04  0.1834737132D-02
      0.4573695180D+03  0.1403732281D-01
      0.1039486850D+03  0.6884262226D-01
      0.2921015530D+02  0.2321844432D+00
      0.9286662960D+01  0.4679413484D+00
      0.3163926960D+01  0.3623119853D+00
 SP   3 1.00       0.000000000000
      0.7868272350D+01 -0.1193324198D+00  0.6899906659D-01
      0.1881288540D+01 -0.1608541517D+00  0.3164239610D+00
      0.5442492580D+00  0.1143456438D+01  0.7443082909D+00
 SP   1 1.00       0.000000000000
      0.1687144782D+00  0.1000000000D+01  0.1000000000D+01
 ****
      4 0
 S   6 1.00       0.000000000000
      0.3047524880D+04  0.1834737132D-02
      0.4573695180D+03  0.1403732281D-01
      0.1039486850D+03  0.6884262226D-01
      0.2921015530D+02  0.2321844432D+00
      0.9286662960D+01  0.4679413484D+00
      0.3163926960D+01  0.3623119853D+00
 SP   3 1.00       0.000000000000
      0.7868272350D+01 -0.1193324198D+00  0.6899906659D-01
      0.1881288540D+01 -0.1608541517D+00  0.3164239610D+00
      0.5442492580D+00  0.1143456438D+01  0.7443082909D+00
 SP   1 1.00       0.000000000000
      0.1687144782D+00  0.1000000000D+01  0.1000000000D+01
 ****
      5 0
 S   6 1.00       0.000000000000
      0.3047524880D+04  0.1834737132D-02
      0.4573695180D+03  0.1403732281D-01
      0.1039486850D+03  0.6884262226D-01
      0.2921015530D+02  0.2321844432D+00
      0.9286662960D+01  0.4679413484D+00
      0.3163926960D+01  0.3623119853D+00
 SP   3 1.00       0.000000000000
      0.7868272350D+01 -0.1193324198D+00  0.6899906659D-01
      0.1881288540D+01 -0.1608541517D+00  0.3164239610D+00
      0.5442492580D+00  0.1143456438D+01  0.7443082909D+00
 SP   1 1.00       0.000000000000
      0.1687144782D+00  0.1000000000D+01  0.1000000000D+01
 ****
      6 0
 S   6 1.00       0.000000000000
      0.3047524880D+04  0.1834737132D-02
      0.4573695180D+03  0.1403732281D-01
      0.1039486850D+03  0.6884262226D-01
      0.2921015530D+02  0.2321844432D+00
      0.9286662960D+01  0.4679413484D+00
      0.3163926960D+01  0.3623119853D+00
 SP   3 1.00       0.000000000000
      0.7868272350D+01 -0.1193324198D+00  0.6899906659D-01
      0.1881288540D+01 -0.1608541517D+00  0.3164239610D+00
      0.5442492580D+00  0.1143456438D+01  0.7443082909D+00
 SP   1 1.00       0.000000000000
      0.1687144782D+00  0.1000000000D+01  0.1000000000D+01
 ****
      7 0
 S   3 1.00       0.000000000000
      0.1873113696D+02  0.3349460434D-01
      0.2825394365D+01  0.2347269535D+00
      0.6401216923D+00  0.8137573261D+00
 S   1 1.00       0.000000000000
      0.1612777588D+00  0.1000000000D+01
 ****
      8 0
 S   3 1.00       0.000000000000
      0.1873113696D+02  0.3349460434D-01
      0.2825394365D+01  0.2347269535D+00
      0.6401216923D+00  0.8137573261D+00
 S   1 1.00       0.000000000000
      0.1612777588D+00  0.1000000000D+01
 ****
      9 0
 S   3 1.00       0.000000000000
      0.1873113696D+02  0.3349460434D-01
      0.2825394365D+01  0.2347269535D+00
      0.6401216923D+00  0.8137573261D+00
 S   1 1.00       0.000000000000
      0.1612777588D+00  0.1000000000D+01
 ****
     10 0
 S   3 1.00       0.000000000000
      0.1873113696D+02  0.3349460434D-01
      0.2825394365D+01  0.2347269535D+00
      0.6401216923D+00  0.8137573261D+00
 S   1 1.00       0.000000000000
      0.1612777588D+00  0.1000000000D+01
 ****
     11 0
 S   3 1.00       0.000000000000
      0.1873113696D+02  0.3349460434D-01
      0.2825394365D+01  0.2347269535D+00
      0.6401216923D+00  0.8137573261D+00
 S   1 1.00       0.000000000000
      0.1612777588D+00  0.1000000000D+01
 ****
     12 0
 S   3 1.00       0.000000000000
      0.1873113696D+02  0.3349460434D-01
      0.2825394365D+01  0.2347269535D+00
      0.6401216923D+00  0.8137573261D+00
 S   1 1.00       0.000000000000
      0.1612777588D+00  0.1000000000D+01
 ****

    66 basis functions,   156 primitive gaussians,    66 cartesian basis functions
    21 alpha electrons       21 beta electrons
       nuclear repulsion energy       202.9242874433 Hartrees.
 NAtoms=   12 NActive=   12 NUniq=   12 SFac= 1.00D+00 NAtFMM=   60 NAOKFM=F Big=F
 Integral buffers will be    131072 words long.
 Raffenetti 1 integral format.
 Two-electron integral symmetry is turned off.
 One-electron integrals computed using PRISM.
 NBasis=    66 RedAO= T EigKep=  7.12D-04  NBF=    66
 NBsUse=    66 1.00D-06 EigRej= -1.00D+00 NBFU=    66
 ExpMin= 1.61D-01 ExpMax= 3.05D+03 ExpMxC= 4.57D+02 IAcc=1 IRadAn=         1 AccDes= 0.00D+00
 Harris functional with IExCor=  205 and IRadAn=       1 diagonalized for initial guess.
 HarFok:  IExCor=  205 AccDes= 0.00D+00 IRadAn=         1 IDoV= 1 UseB2=F ITyADJ=14
 ICtDFT=  3500011 ScaDFX=  1.000000  1.000000  1.000000  1.000000
 FoFCou: FMM=F IPFlag=           0 FMFlag=      100000 FMFlg1=           0
         NFxFlg=           0 DoJE=T BraDBF=F KetDBF=T FulRan=T
         wScrn=  0.000000 ICntrl=       500 IOpCl=  0 I1Cent=   200000004 NGrid=           0
         NMat0=    1 NMatS0=      1 NMatT0=    0 NMatD0=    1 NMtDS0=    0 NMtDT0=    0
 Symmetry not used in FoFCou.
 Keep R1 ints in memory in canonical form, NReq=3289403.
 Requested convergence on RMS density matrix=1.00D-08 within 128 cycles.
 Requested convergence on MAX density matrix=1.00D-06.
 Requested convergence on             energy=1.00D-06.
 No special actions if energy rises.
 SCF Done:  E(RHF) =  -230.622951990     A.U. after    9 cycles
            NFock=  9  Conv=0.21D-08     -V/T= 2.0001
 Range of M.O.s used for correlation:     1    66
 NBasis=    66 NAE=    21 NBE=    21 NFC=     0 NFV=     0
 NROrb=     66 NOA=    21 NOB=    21 NVA=    45 NVB=    45

 **** Warning!!: The largest alpha MO coefficient is  0.11476834D+02

 Semi-Direct transformation.
 ModeAB=           2 MOrb=            21 LenV=      33348073
 LASXX=      1321530 LTotXX=     1321530 LenRXX=     1321530
 LTotAB=     1403766 MaxLAS=     3064446 LenRXY=     3064446
 NonZer=     3143448 LenScr=     5497856 LnRSAI=           0
 LnScr1=           0 LExtra=           0 Total=      9883832
 MaxDsk=          -1 SrtSym=           F ITran=            3
 JobTyp=0 Pass  1:  I=   1 to  21.
 (rs|ai) integrals will be sorted in core.
 Spin components of T(2) and E(2):
     alpha-alpha T2 =       0.2962620699D-01 E2=     -0.6607351030D-01
     alpha-beta  T2 =       0.1654177158D+00 E2=     -0.3926845965D+00
     beta-beta   T2 =       0.2962620699D-01 E2=     -0.6607351030D-01
 ANorm=    0.1106648151D+01
 E2 =    -0.5248316171D+00 EUMP2 =    -0.23114778360743D+03
    96 initial guesses have been made.
 Convergence on wavefunction:    0.001000000000000
 Iteration     1 Dimension    96 NMult     0 NNew     96
 New state      1 was old state      4
 New state      3 was old state      6
 New state      4 was old state      8
 New state      5 was old state      1
 New state      6 was old state      3
 New state      7 was old state     22
 New state      8 was old state     24
 New state      9 was old state     10
 New state     10 was old state     12
 New state     11 was old state     16
 New state     12 was old state      9
 New state     13 was old state     11
 New state     15 was old state     18
 New state     16 was old state      5
 New state     17 was old state      7
 New state     18 was old state     30
 New state     19 was old state     20
 New state     20 was old state     15
 New state     21 was old state     13
 New state     22 was old state     17
 New state     23 was old state     19
 New state     24 was old state     29
 New state     25 was old state     80
 New state     26 was old state     82
 New state     27 was old state     32
 New state     28 was old state     36
 New state     29 was old state     31
 New state     30 was old state     35
 New state     31 was old state     57
 New state     32 was old state     59
 New state     33 was old state     50
 New state     34 was old state     21
 New state     35 was old state     23
 New state     36 was old state     40
 New state     37 was old state     34
 New state     38 was old state     33
 New state     39 was old state     49
 New state     40 was old state     42
 New state     41 was old state     38
 New state     42 was old state     39
 New state     43 was old state     26
 New state     44 was old state     28
 New state     45 was old state     41
 New state     46 was old state     37
 New state     47 was old state     44
 New state     48 was old state     58
 Iteration     2 Dimension   192 NMult    96 NNew     96
 New state      9 was old state     16
 New state     10 was old state     17
 New state     11 was old state     19
 New state     12 was old state      9
 New state     13 was old state     10
 New state     16 was old state     11
 New state     17 was old state     23
 New state     18 was old state     12
 New state     19 was old state     13
 New state     20 was old state     22
 New state     22 was old state     20
 New state     23 was old state     18
 New state     29 was old state     33
 New state     30 was old state     34
 New state     31 was old state     35
 New state     32 was old state     29
 New state     33 was old state     30
 New state     34 was old state     36
 New state     35 was old state     31
 New state     36 was old state     32
 New state     37 was old state     39
 New state     38 was old state     61
 New state     39 was old state     62
 New state     42 was old state     37
 New state     43 was old state     38
 New state     44 was old state     42
 New state     45 was old state     67
 New state     46 was old state     48
 New state     47 was old state     49
 New state     48 was old state     45
 Iteration     3 Dimension   216 NMult   192 NNew     24
 New state     14 was old state     15
 New state     15 was old state     14
 New state     23 was old state     24
 New state     24 was old state     30
 Iteration     4 Dimension   238 NMult   216 NNew     22
 Iteration     5 Dimension   250 NMult   238 NNew     12
 Iteration     6 Dimension   252 NMult   250 NNew      2
 ***********************************************************************
 Excited states from <AA,BB:AA,BB> singles matrix:
 ***********************************************************************
 
 Ground to excited state transition densities written to RWF  633
 Ground to excited state transition electric dipole moments (Au):
       state          X           Y           Z        Dip. S.      Osc.
         1         0.0000      0.0000      0.0000      0.0000      0.0000
         2         0.0000      0.0000      0.0000      0.0000      0.0000
         3         0.0000      0.0000      0.0000      0.0000      0.0000
         4         0.0000      0.0000      0.0000      0.0000      0.0000
         5        -0.0002      0.0001      0.0000      0.0000      0.0000
         6         0.0001      0.0000      0.0000      0.0000      0.0000
         7         0.0000      0.0000      0.0000      0.0000      0.0000
         8         0.0000      0.0000      0.0000      0.0000      0.0000
         9         1.4916      1.8019     -0.0007      5.4715      1.1548
        10         1.8020     -1.4916      0.0015      5.4722      1.1550
        11         0.0000      0.0000      0.0000      0.0000      0.0000
        12         0.0000      0.0000      0.0000      0.0000      0.0000
        13         0.0000      0.0000      0.0000      0.0000      0.0000
        14         0.0000      0.0000      0.0000      0.0000      0.0000
        15         0.0000      0.0000      0.0000      0.0000      0.0000
        16         0.0000      0.0000      0.0000      0.0000      0.0000
        17         0.0000      0.0000      0.0000      0.0000      0.0000
        18         0.0000      0.0000      0.0000      0.0000      0.0000
        19         0.0000      0.0000      0.0000      0.0000      0.0000
        20         0.0000      0.0000      0.0006      0.0000      0.0000
        21         0.0000      0.0000      0.0000      0.0000      0.0000
        22        -0.0001      0.0002      0.2671      0.0714      0.0171
        23         0.0000      0.0000     -0.0577      0.0033      0.0009
        24         0.0000      0.0000      0.0000      0.0000      0.0000
 Ground to excited state transition velocity dipole moments (Au):
       state          X           Y           Z        Dip. S.      Osc.
         1         0.0000      0.0000      0.0000      0.0000      0.0000
         2         0.0000      0.0000      0.0000      0.0000      0.0000
         3         0.0000      0.0000      0.0000      0.0000      0.0000
         4         0.0000      0.0000      0.0000      0.0000      0.0000
         5         0.0000      0.0000      0.0000      0.0000      0.0000
         6         0.0000      0.0000      0.0000      0.0000      0.0000
         7         0.0000      0.0000      0.0000      0.0000      0.0000
         8         0.0000      0.0000      0.0000      0.0000      0.0000
         9        -0.1269     -0.1528      0.0001      0.0394      0.0831
        10        -0.1528      0.1269     -0.0001      0.0394      0.0831
        11         0.0000      0.0000      0.0000      0.0000      0.0000
        12         0.0000      0.0000      0.0000      0.0000      0.0000
        13         0.0000      0.0000      0.0000      0.0000      0.0000
        14         0.0000      0.0000      0.0000      0.0000      0.0000
        15         0.0000      0.0000      0.0000      0.0000      0.0000
        16         0.0000      0.0000      0.0000      0.0000      0.0000
        17         0.0000      0.0000     -0.0001      0.0000      0.0000
        18         0.0000      0.0000      0.0000      0.0000      0.0000
        19         0.0000      0.0000      0.0000      0.0000      0.0000
        20         0.0000      0.0000     -0.0002      0.0000      0.0000
        21         0.0000      0.0000      0.0000      0.0000      0.0000
        22         0.0000     -0.0001     -0.1122      0.0126      0.0233
        23         0.0000      0.0000     -0.0362      0.0013      0.0023
        24         0.0000      0.0000      0.0000      0.0000      0.0000
 Ground to excited state transition magnetic dipole moments (Au):
       state          X           Y           Z
         1         0.0000      0.0000      0.0000
         2         0.0000      0.0000      0.0000
         3         0.0000      0.0000      0.0000
         4         0.0000      0.0000      0.0000
         5         0.0000      0.0000     -0.0001
         6         0.0000      0.0000      0.0000
         7         0.0000      0.0000      0.0000
         8         0.0000      0.0000      0.0000
         9         0.0000      0.0001      0.1047
        10        -0.0001      0.0003      0.4151
        11         0.0000      0.0000      0.0000
        12         0.0000      0.0000      0.0000
        13         0.0000      0.0000      0.0000
        14         0.0000      0.0000      0.0000
        15         0.0000      0.0000      0.0000
        16         0.0000      0.0000      0.0000
        17        -0.0001      0.0001      0.0000
        18        -0.4597      0.2435     -0.0003
        19        -0.2435     -0.4597      0.0002
        20        -0.0005      0.0002      0.0000
        21         0.0000      0.0000      0.0000
        22        -0.2182      0.1044     -0.0001
        23        -0.0703      0.0337      0.0000
        24         0.0000      0.0000     -0.0001
 Ground to excited state transition velocity quadrupole moments (Au):
       state          XX          YY          ZZ          XY          XZ          YZ
         1         0.0000      0.0000      0.0000      0.0000      0.0000      0.0000
         2         0.0000      0.0000      0.0000      0.0000      0.0000      0.0000
         3         0.0000      0.0000      0.0000      0.0000      0.0000      0.0000
         4         0.0000      0.0000      0.0000      0.0000      0.0000      0.0000
         5         0.0000      0.0000      0.0000      0.0000      0.0000      0.0000
         6         0.0000      0.0001      0.0000      0.0000      0.0000      0.0000
         7         0.0000      0.0000      0.0000      0.0000      0.0000      0.0000
         8         0.0000      0.0000      0.0000      0.0000      0.0000      0.0000
         9        -0.2362     -0.5940      0.0000     -0.3889      0.0002      0.0003
        10        -0.2843      0.4936      0.0000     -0.1789      0.0000     -0.0004
        11         0.0000      0.0000      0.0000      0.0000      0.0000      0.0000
        12         0.0000      0.0000      0.0000      0.0000      0.0000      0.0000
        13         0.0000      0.0000      0.0000      0.0000      0.0000      0.0000
        14         0.0000      0.0000      0.0000      0.0000      0.0000      0.0000
        15         0.0000      0.0000      0.0000      0.0000      0.0000      0.0000
        16         0.0000      0.0000      0.0000      0.0000      0.0000      0.0000
        17         0.0000      0.0000      0.0000      0.0000     -0.0001     -0.0001
        18         0.0001     -0.0002      0.0002      0.0000     -0.0947     -0.1783
        19        -0.0001     -0.0001      0.0002      0.0001      0.1783     -0.0947
        20         0.0000      0.0000      0.0000      0.0000     -0.0002     -0.0005
        21         0.0000      0.0000      0.0000      0.0000      0.0000      0.0000
        22         0.0001     -0.0003      0.0002      0.0000     -0.1044     -0.2182
        23         0.0000     -0.0001      0.0001      0.0000     -0.0337     -0.0703
        24        -0.5677      0.5677      0.0000     -0.7236      0.0003     -0.0006
 <0|del|b> * <b|rxdel|0> + <0|del|b> * <b|delr+rdel|0>
 Rotatory Strengths (R) in cgs (10**-40 erg-esu-cm/Gauss)
       state          XX          YY          ZZ    R(velocity)    E-M Angle
         1         0.0000      0.0000      0.0000      0.0000       90.00
         2         0.0000      0.0000      0.0000      0.0000       90.00
         3         0.0000      0.0000      0.0000      0.0000       90.00
         4         0.0000      0.0000      0.0000      0.0000       90.00
         5         0.0000      0.0000      0.0000      0.0000       90.00
         6         0.0000      0.0000      0.0000      0.0000       90.00
         7         0.0000      0.0000      0.0000      0.0000       90.00
         8         0.0000      0.0000      0.0000      0.0000       90.00
         9         0.0000      0.0000      0.0000      0.0000       90.00
        10         0.0000      0.0000      0.0000      0.0000       90.00
        11         0.0000      0.0000      0.0000      0.0000       90.00
        12         0.0000      0.0000      0.0000      0.0000       90.00
        13         0.0000      0.0000      0.0000      0.0000       90.00
        14         0.0000      0.0000      0.0000      0.0000       90.00
        15         0.0000      0.0000      0.0000      0.0000       90.00
        16         0.0000      0.0000      0.0000      0.0000       90.00
        17         0.0000      0.0000      0.0000      0.0000       90.00
        18         0.0000      0.0000      0.0000      0.0000       90.00
        19         0.0000      0.0000      0.0000      0.0000       90.00
        20         0.0000      0.0000      0.0000      0.0000       90.00
        21         0.0000      0.0000      0.0000      0.0000       90.00
        22         0.0001     -0.0001      0.0000      0.0000       90.00
        23        -0.0001      0.0001      0.0000      0.0000       90.00
        24         0.0000      0.0000      0.0000      0.0000       90.00
 1/2[<0|r|b>*<b|rxdel|0> + (<0|rxdel|b>*<b|r|0>)*]
 Rotatory Strengths (R) in cgs (10**-40 erg-esu-cm/Gauss)
       state          XX          YY          ZZ     R(length)
         1         0.0000      0.0000      0.0000      0.0000
         2         0.0000      0.0000      0.0000      0.0000
         3         0.0000      0.0000      0.0000      0.0000
         4         0.0000      0.0000      0.0000      0.0000
         5         0.0000      0.0000      0.0000      0.0000
         6         0.0000      0.0000      0.0000      0.0000
         7         0.0000      0.0000      0.0000      0.0000
         8         0.0000      0.0000      0.0000      0.0000
         9         0.0282     -0.0801      0.0519      0.0000
        10         0.1667      0.2757     -0.4423      0.0000
        11         0.0000      0.0000      0.0000      0.0000
        12         0.0000      0.0000      0.0000      0.0000
        13         0.0000      0.0000      0.0000      0.0000
        14         0.0000      0.0000      0.0000      0.0000
        15         0.0000      0.0000      0.0000      0.0000
        16         0.0000      0.0000      0.0000      0.0000
        17         0.0000      0.0000      0.0000      0.0000
        18         0.0000      0.0000      0.0000      0.0000
        19         0.0000      0.0000      0.0000      0.0000
        20         0.0000      0.0000      0.0000      0.0000
        21         0.0000      0.0000      0.0000      0.0000
        22        -0.0123     -0.0126      0.0250      0.0000
        23         0.0008      0.0009     -0.0018     -0.0001
        24         0.0000      0.0000      0.0000      0.0000
  1/2[<0|del|b>*<b|r|0> + (<0|r|b>*<b|del|0>)*] (Au)
       state          X           Y           Z        Dip. S.   Osc.(frdel)
         1         0.0000      0.0000      0.0000      0.0000      0.0000
         2         0.0000      0.0000      0.0000      0.0000      0.0000
         3         0.0000      0.0000      0.0000      0.0000      0.0000
         4         0.0000      0.0000      0.0000      0.0000      0.0000
         5         0.0000      0.0000      0.0000      0.0000      0.0000
         6         0.0000      0.0000      0.0000      0.0000      0.0000
         7         0.0000      0.0000      0.0000      0.0000      0.0000
         8         0.0000      0.0000      0.0000      0.0000      0.0000
         9        -0.1893     -0.2752      0.0000      0.4645      0.3097
        10        -0.2753     -0.1893      0.0000      0.4646      0.3097
        11         0.0000      0.0000      0.0000      0.0000      0.0000
        12         0.0000      0.0000      0.0000      0.0000      0.0000
        13         0.0000      0.0000      0.0000      0.0000      0.0000
        14         0.0000      0.0000      0.0000      0.0000      0.0000
        15         0.0000      0.0000      0.0000      0.0000      0.0000
        16         0.0000      0.0000      0.0000      0.0000      0.0000
        17         0.0000      0.0000      0.0000      0.0000      0.0000
        18         0.0000      0.0000      0.0000      0.0000      0.0000
        19         0.0000      0.0000      0.0000      0.0000      0.0000
        20         0.0000      0.0000      0.0000      0.0000      0.0000
        21         0.0000      0.0000      0.0000      0.0000      0.0000
        22         0.0000      0.0000     -0.0300      0.0300      0.0200
        23         0.0000      0.0000      0.0021     -0.0021     -0.0014
        24         0.0000      0.0000      0.0000      0.0000      0.0000

 Excitation energies and oscillator strengths:
 
 Excited state symmetry could not be determined.
 Excited State   1:      Triplet-?Sym    3.3296 eV  372.37 nm  f=0.0000  <S**2>=2.000
      17 -> 30         0.17588
      20 -> 22        -0.44721
      20 -> 23        -0.17180
      21 -> 22        -0.17185
      21 -> 23         0.44727
 This state for optimization and/or second-order correction.
 Total Energy, E(CIS) =  -230.500593146    
 Copying the excited state density for this state as the 1-particle RhoCI density.
 
 Excited state symmetry could not be determined.
 Excited State   2:      Triplet-?Sym    5.1411 eV  241.16 nm  f=0.0000  <S**2>=2.000
      20 -> 22         0.19865
      20 -> 23        -0.45655
      21 -> 22         0.45675
      21 -> 23         0.19876
 
 Excited state symmetry could not be determined.
 Excited State   3:      Triplet-?Sym    5.1412 eV  241.16 nm  f=0.0000  <S**2>=2.000
      20 -> 22         0.45670
      20 -> 23         0.19868
      21 -> 22        -0.19873
      21 -> 23         0.45660
 
 Excited state symmetry could not be determined.
 Excited State   4:      Triplet-?Sym    6.0897 eV  203.60 nm  f=0.0000  <S**2>=2.000
      20 -> 22        -0.17924
      20 -> 23         0.46663
      21 -> 22         0.46639
      21 -> 23         0.17922
 
 Excited state symmetry could not be determined.
 Excited State   5:      Singlet-?Sym    6.3982 eV  193.78 nm  f=0.0000  <S**2>=0.000
      20 -> 22        -0.17910
      20 -> 23         0.46614
      21 -> 22         0.46626
      21 -> 23         0.17911
 
 Excited state symmetry could not be determined.
 Excited State   6:      Singlet-?Sym    6.6106 eV  187.55 nm  f=0.0000  <S**2>=0.000
      20 -> 22        -0.45726
      20 -> 23        -0.17566
      21 -> 22        -0.17570
      21 -> 23         0.45732
 
 Excited state symmetry could not be determined.
 Excited State   7:      Triplet-?Sym    7.9009 eV  156.92 nm  f=0.0000  <S**2>=2.000
      17 -> 22         0.52126
      17 -> 23        -0.22421
      20 -> 30        -0.29126
      21 -> 30        -0.28415
 
 Excited state symmetry could not be determined.
 Excited State   8:      Triplet-?Sym    7.9010 eV  156.92 nm  f=0.0000  <S**2>=2.000
      17 -> 22         0.22422
      17 -> 23         0.52125
      20 -> 30        -0.28414
      21 -> 30         0.29128
 
 Excited state symmetry could not be determined.
 Excited State   9:      Singlet-?Sym    8.6148 eV  143.92 nm  f=1.1548  <S**2>=0.000
      20 -> 22         0.45546
      20 -> 23         0.16259
      21 -> 22        -0.16254
      21 -> 23         0.45540
 
 Excited state symmetry could not be determined.
 Excited State  10:      Singlet-?Sym    8.6149 eV  143.92 nm  f=1.1550  <S**2>=0.000
      20 -> 22        -0.16258
      20 -> 23         0.45548
      21 -> 22        -0.45537
      21 -> 23        -0.16256
 
 Excited state symmetry could not be determined.
 Excited State  11:      Triplet-?Sym    9.1227 eV  135.91 nm  f=0.0000  <S**2>=2.000
      14 -> 30        -0.18087
      18 -> 23        -0.46104
      19 -> 22         0.46242
 
 Excited state symmetry could not be determined.
 Excited State  12:      Triplet-?Sym    9.2756 eV  133.67 nm  f=0.0000  <S**2>=2.000
      17 -> 26         0.14340
      20 -> 27        -0.10636
      21 -> 24         0.66787
      21 -> 28        -0.10635
 
 Excited state symmetry could not be determined.
 Excited State  13:      Triplet-?Sym    9.2761 eV  133.66 nm  f=0.0000  <S**2>=2.000
      17 -> 25         0.14341
      20 -> 24         0.66786
      20 -> 28         0.10636
      21 -> 27        -0.10639
 
 Excited state symmetry could not be determined.
 Excited State  14:      Triplet-?Sym    9.3034 eV  133.27 nm  f=0.0000  <S**2>=2.000
      16 -> 30         0.15042
      18 -> 22        -0.44508
      18 -> 23        -0.17217
      19 -> 22        -0.17209
      19 -> 23         0.44737
 
 Excited state symmetry could not be determined.
 Excited State  15:      Triplet-?Sym    9.3035 eV  133.27 nm  f=0.0000  <S**2>=2.000
      15 -> 30        -0.15040
      18 -> 22        -0.17229
      18 -> 23         0.44684
      19 -> 22         0.44562
      19 -> 23         0.17197
 
 Excited state symmetry could not be determined.
 Excited State  16:      Triplet-?Sym    9.3754 eV  132.24 nm  f=0.0000  <S**2>=2.000
      13 -> 30        -0.12699
      18 -> 22         0.48017
      19 -> 23         0.47814
 
 Excited state symmetry could not be determined.
 Excited State  17:      Singlet-?Sym    9.4404 eV  131.33 nm  f=0.0000  <S**2>=0.000
      14 -> 30        -0.16621
      18 -> 23        -0.46674
      19 -> 22         0.46771
 
 Excited state symmetry could not be determined.
 Excited State  18:      Singlet-?Sym    9.5592 eV  129.70 nm  f=0.0000  <S**2>=0.000
      17 -> 26         0.12980
      21 -> 24         0.67900
 
 Excited state symmetry could not be determined.
 Excited State  19:      Singlet-?Sym    9.5597 eV  129.69 nm  f=0.0000  <S**2>=0.000
      17 -> 25         0.12981
      20 -> 24         0.67900
 
 Excited state symmetry could not be determined.
 Excited State  20:      Singlet-?Sym    9.7133 eV  127.64 nm  f=0.0000  <S**2>=0.000
      16 -> 30         0.13232
      18 -> 22        -0.45384
      18 -> 23        -0.15946
      19 -> 22        -0.15951
      19 -> 23         0.45589
 
 Excited state symmetry could not be determined.
 Excited State  21:      Singlet-?Sym    9.7133 eV  127.64 nm  f=0.0000  <S**2>=0.000
      15 -> 30        -0.13230
      18 -> 22        -0.15964
      18 -> 23         0.45529
      19 -> 22         0.45445
      19 -> 23         0.15933
 
 Excited state symmetry could not be determined.
 Excited State  22:      Singlet-?Sym    9.7900 eV  126.64 nm  f=0.0171  <S**2>=0.000
      13 -> 30        -0.10901
      18 -> 22         0.47492
      19 -> 23         0.47305
 
 Excited state symmetry could not be determined.
 Excited State  23:      Singlet-?Sym   10.4445 eV  118.71 nm  f=0.0009  <S**2>=0.000
      17 -> 24        -0.26409
      18 -> 22        -0.10402
      19 -> 23        -0.10400
      20 -> 25        -0.42122
      20 -> 26        -0.15352
      21 -> 25         0.15367
      21 -> 26        -0.42145
 
 Excited state symmetry could not be determined.
 Excited State  24:      Singlet-?Sym   11.0707 eV  111.99 nm  f=0.0000  <S**2>=0.000
      17 -> 22         0.64208
      20 -> 30        -0.21114
      21 -> 30        -0.10892
 SavETr:  write IOETrn=   770 NScale= 10 NData=  16 NLR=1 NState=   24 LETran=     442.

 **********************************************************************

            Population analysis using the SCF density.

 **********************************************************************

 Alpha  occ. eigenvalues --  -11.24026 -11.23973 -11.23973 -11.23856 -11.23856
 Alpha  occ. eigenvalues --  -11.23800  -1.14912  -1.01251  -1.01249  -0.81996
 Alpha  occ. eigenvalues --   -0.81995  -0.70681  -0.63725  -0.61489  -0.58439
 Alpha  occ. eigenvalues --   -0.58436  -0.49746  -0.48653  -0.48651  -0.33259
 Alpha  occ. eigenvalues --   -0.33257
 Alpha virt. eigenvalues --    0.14508   0.14508   0.23202   0.28912   0.28912
 Alpha virt. eigenvalues --    0.32874   0.32875   0.33392   0.35957   0.46864
 Alpha virt. eigenvalues --    0.46866   0.49455   0.49455   0.68320   0.75485
 Alpha virt. eigenvalues --    0.76873   0.76934   0.78220   0.83625   0.84534
 Alpha virt. eigenvalues --    0.84535   0.87264   0.87267   0.89679   0.89680
 Alpha virt. eigenvalues --    0.91528   0.91528   0.99052   1.13204   1.13264
 Alpha virt. eigenvalues --    1.13265   1.16262   1.16264   1.24161   1.26956
 Alpha virt. eigenvalues --    1.26960   1.27023   1.35812   1.35813   1.43463
 Alpha virt. eigenvalues --    1.43464   1.47382   1.72280   1.72285   2.16286
     Molecular Orbital Coefficients:
                           1         2         3         4         5
                           O         O         O         O         O
     Eigenvalues --   -11.24026 -11.23973 -11.23973 -11.23856 -11.23856
   1 1   C  1S          0.40581   0.11605   0.56271  -0.12586   0.56184
   2        2S          0.00936   0.00284   0.01376  -0.00328   0.01463
   3        2PX        -0.00003  -0.00022   0.00015  -0.00007   0.00014
   4        2PY        -0.00005   0.00017   0.00014  -0.00004   0.00026
   5        2PZ         0.00000   0.00000   0.00000   0.00000   0.00000
   6        3S         -0.00283  -0.00129  -0.00632   0.00296  -0.01323
   7        3PX         0.00024   0.00147  -0.00059   0.00194  -0.00123
   8        3PY         0.00041  -0.00097  -0.00029  -0.00030  -0.00296
   9        3PZ         0.00000   0.00000   0.00000   0.00000   0.00000
  10 2   C  1S          0.40715   0.54619   0.18123   0.54863  -0.17155
  11        2S          0.00939   0.01336   0.00443   0.01429  -0.00447
  12        2PX         0.00003  -0.00017   0.00020  -0.00014   0.00008
  13        2PY        -0.00005   0.00012   0.00019   0.00026  -0.00006
  14        2PZ         0.00000   0.00000   0.00000   0.00000   0.00000
  15        3S         -0.00286  -0.00616  -0.00206  -0.01293   0.00405
  16        3PX        -0.00023   0.00076  -0.00138   0.00107  -0.00204
  17        3PY         0.00040  -0.00019  -0.00102  -0.00297  -0.00005
  18        3PZ         0.00000   0.00000   0.00000   0.00000   0.00000
  19 3   C  1S          0.40660   0.42920  -0.38277  -0.42375  -0.38898
  20        2S          0.00938   0.01049  -0.00936  -0.01104  -0.01013
  21        2PX         0.00006  -0.00015   0.00013   0.00023   0.00021
  22        2PY         0.00000   0.00018   0.00021   0.00003  -0.00003
  23        2PZ         0.00000   0.00000   0.00000   0.00000   0.00000
  24        3S         -0.00285  -0.00482   0.00433   0.00998   0.00917
  25        3PX        -0.00047   0.00042  -0.00039  -0.00240  -0.00221
  26        3PY         0.00000  -0.00120  -0.00134  -0.00127   0.00138
  27        3PZ         0.00000   0.00000   0.00000   0.00000   0.00000
  28 4   C  1S          0.40581  -0.11605  -0.56272  -0.12586   0.56184
  29        2S          0.00936  -0.00284  -0.01376  -0.00328   0.01463
  30        2PX         0.00003  -0.00022   0.00015   0.00007  -0.00014
  31        2PY         0.00005   0.00017   0.00014   0.00004  -0.00026
  32        2PZ         0.00000   0.00000   0.00000   0.00000   0.00000
  33        3S         -0.00283   0.00129   0.00632   0.00296  -0.01323
  34        3PX        -0.00024   0.00147  -0.00059  -0.00194   0.00123
  35        3PY        -0.00041  -0.00097  -0.00029   0.00030   0.00296
  36        3PZ         0.00000   0.00000   0.00000   0.00000   0.00000
  37 5   C  1S          0.40715  -0.54619  -0.18123   0.54863  -0.17155
  38        2S          0.00939  -0.01336  -0.00443   0.01429  -0.00447
  39        2PX        -0.00003  -0.00017   0.00020   0.00014  -0.00008
  40        2PY         0.00005   0.00012   0.00019  -0.00026   0.00006
  41        2PZ         0.00000   0.00000   0.00000   0.00000   0.00000
  42        3S         -0.00286   0.00616   0.00206  -0.01293   0.00405
  43        3PX         0.00023   0.00076  -0.00138  -0.00107   0.00204
  44        3PY        -0.00040  -0.00019  -0.00102   0.00297   0.00005
  45        3PZ         0.00000   0.00000   0.00000   0.00000   0.00000
  46 6   C  1S          0.40661  -0.42920   0.38277  -0.42375  -0.38898
  47        2S          0.00938  -0.01049   0.00936  -0.01104  -0.01013
  48        2PX        -0.00006  -0.00015   0.00013  -0.00023  -0.00021
  49        2PY         0.00000   0.00018   0.00021  -0.00003   0.00003
  50        2PZ         0.00000   0.00000   0.00000   0.00000   0.00000
  51        3S         -0.00285   0.00482  -0.00433   0.00998   0.00917
  52        3PX         0.00047   0.00042  -0.00039   0.00240   0.00221
  53        3PY         0.00000  -0.00120  -0.00134   0.00127  -0.00138
  54        3PZ         0.00000   0.00000   0.00000   0.00000   0.00000
  55 7   H  1S         -0.00015  -0.00005  -0.00023   0.00003  -0.00015
  56        2S          0.00115   0.00021   0.00103  -0.00014   0.00063
  57 8   H  1S         -0.00015  -0.00023  -0.00007  -0.00014   0.00004
  58        2S          0.00116   0.00099   0.00033   0.00061  -0.00019
  59 9   H  1S         -0.00015  -0.00018   0.00016   0.00011   0.00010
  60        2S          0.00115   0.00078  -0.00069  -0.00047  -0.00043
  61 10  H  1S         -0.00015   0.00005   0.00023   0.00003  -0.00015
  62        2S          0.00115  -0.00021  -0.00103  -0.00014   0.00063
  63 11  H  1S         -0.00015   0.00023   0.00007  -0.00014   0.00004
  64        2S          0.00116  -0.00099  -0.00033   0.00061  -0.00019
  65 12  H  1S         -0.00015   0.00018  -0.00016   0.00011   0.00010
  66        2S          0.00115  -0.00078   0.00069  -0.00047  -0.00043
                           6         7         8         9        10
                           O         O         O         O         O
     Eigenvalues --   -11.23800  -1.14912  -1.01251  -1.01249  -0.81996
   1 1   C  1S         -0.40760  -0.09249   0.01073  -0.12836   0.01879
   2        2S         -0.01145   0.18230  -0.02158   0.25815  -0.03841
   3        2PX        -0.00013   0.03122   0.09804   0.02477   0.18311
   4        2PY        -0.00023   0.05408  -0.05979   0.02370  -0.09269
   5        2PZ         0.00000  -0.00003   0.00007  -0.00001   0.00012
   6        3S          0.02151   0.10957  -0.01633   0.19539  -0.03448
   7        3PX         0.00445   0.00389   0.00815  -0.00074   0.04256
   8        3PY         0.00771   0.00674  -0.00443  -0.00283  -0.01489
   9        3PZ         0.00000   0.00000   0.00001   0.00000   0.00002
  10 2   C  1S          0.40631  -0.09249  -0.10580  -0.07347  -0.09519
  11        2S          0.01142   0.18230   0.21278   0.14776   0.19463
  12        2PX        -0.00013  -0.03122   0.04334  -0.09137  -0.03098
  13        2PY         0.00023   0.05409   0.05636  -0.03098  -0.08396
  14        2PZ         0.00000  -0.00004  -0.00002  -0.00001   0.00004
  15        3S         -0.02149   0.10956   0.16104   0.11182   0.17474
  16        3PX         0.00445  -0.00389   0.00576  -0.00581   0.00835
  17        3PY        -0.00771   0.00673   0.00064  -0.00523  -0.04422
  18        3PZ         0.00001  -0.00001   0.00000   0.00000   0.00003
  19 3   C  1S         -0.40685  -0.09249  -0.11653   0.05489   0.07640
  20        2S         -0.01143   0.18230   0.23436  -0.11039  -0.15621
  21        2PX         0.00027  -0.06245  -0.02990   0.01407  -0.04594
  22        2PY         0.00000   0.00000  -0.04908  -0.10422  -0.13612
  23        2PZ         0.00000  -0.00002   0.00002   0.00007   0.00007
  24        3S          0.02150   0.10956   0.17737  -0.08354  -0.14025
  25        3PX        -0.00891  -0.00777   0.00255  -0.00122  -0.03409
  26        3PY         0.00000   0.00000  -0.00396  -0.00842  -0.02942
  27        3PZ         0.00000   0.00000   0.00000   0.00001   0.00001
  28 4   C  1S          0.40760  -0.09249  -0.01073   0.12836   0.01879
  29        2S          0.01145   0.18230   0.02158  -0.25815  -0.03841
  30        2PX        -0.00013  -0.03122   0.09804   0.02477  -0.18311
  31        2PY        -0.00023  -0.05408  -0.05979   0.02370   0.09269
  32        2PZ         0.00000   0.00003   0.00007  -0.00001  -0.00012
  33        3S         -0.02151   0.10957   0.01633  -0.19539  -0.03448
  34        3PX         0.00445  -0.00389   0.00815  -0.00074  -0.04256
  35        3PY         0.00771  -0.00674  -0.00443  -0.00283   0.01489
  36        3PZ         0.00000   0.00000   0.00001   0.00000  -0.00002
  37 5   C  1S         -0.40631  -0.09249   0.10580   0.07347  -0.09519
  38        2S         -0.01142   0.18230  -0.21278  -0.14776   0.19463
  39        2PX        -0.00013   0.03122   0.04334  -0.09137   0.03098
  40        2PY         0.00023  -0.05409   0.05636  -0.03098   0.08396
  41        2PZ         0.00000   0.00004  -0.00002  -0.00001  -0.00004
  42        3S          0.02149   0.10956  -0.16104  -0.11182   0.17474
  43        3PX         0.00445   0.00389   0.00576  -0.00581  -0.00835
  44        3PY        -0.00771  -0.00673   0.00064  -0.00523   0.04422
  45        3PZ         0.00001   0.00001   0.00000   0.00000  -0.00003
  46 6   C  1S          0.40685  -0.09249   0.11653  -0.05489   0.07640
  47        2S          0.01143   0.18230  -0.23436   0.11039  -0.15621
  48        2PX         0.00027   0.06245  -0.02990   0.01407   0.04594
  49        2PY         0.00000   0.00000  -0.04908  -0.10422   0.13612
  50        2PZ         0.00000   0.00002   0.00002   0.00007  -0.00007
  51        3S         -0.02150   0.10956  -0.17737   0.08354  -0.14025
  52        3PX        -0.00891   0.00777   0.00255  -0.00122   0.03409
  53        3PY         0.00000   0.00000  -0.00396  -0.00842   0.02942
  54        3PZ         0.00000   0.00000   0.00000   0.00001  -0.00001
  55 7   H  1S          0.00022   0.03576  -0.00640   0.07660  -0.02135
  56        2S          0.00089   0.00475  -0.00134   0.01600  -0.00735
  57 8   H  1S         -0.00022   0.03576   0.06313   0.04384   0.10817
  58        2S         -0.00089   0.00475   0.01319   0.00916   0.03727
  59 9   H  1S          0.00022   0.03576   0.06953  -0.03276  -0.08682
  60        2S          0.00089   0.00475   0.01453  -0.00684  -0.02992
  61 10  H  1S         -0.00022   0.03576   0.00640  -0.07660  -0.02135
  62        2S         -0.00089   0.00475   0.00134  -0.01600  -0.00735
  63 11  H  1S          0.00022   0.03576  -0.06313  -0.04384   0.10817
  64        2S          0.00089   0.00475  -0.01319  -0.00916   0.03727
  65 12  H  1S         -0.00022   0.03576  -0.06953   0.03276  -0.08682
  66        2S         -0.00089   0.00475  -0.01453   0.00684  -0.02992
                          11        12        13        14        15
                           O         O         O         O         O
     Eigenvalues --    -0.81995  -0.70681  -0.63725  -0.61489  -0.58439
   1 1   C  1S         -0.09907  -0.00904  -0.05643   0.00001   0.00005
   2        2S          0.20256   0.01778   0.12285  -0.00003  -0.00012
   3        2PX         0.00387  -0.09693  -0.06496   0.23828  -0.07232
   4        2PY        -0.07102  -0.16787  -0.11263  -0.13755   0.04080
   5        2PZ         0.00005   0.00008   0.00005   0.00016  -0.00005
   6        3S          0.18187   0.03698   0.02465   0.00000  -0.00010
   7        3PX        -0.01483  -0.03616  -0.07988   0.08071  -0.01364
   8        3PY        -0.04248  -0.06262  -0.13839  -0.04656   0.00747
   9        3PZ         0.00002   0.00003   0.00006   0.00005  -0.00001
  10 2   C  1S          0.03327  -0.00905   0.05642  -0.00001   0.01650
  11        2S         -0.06802   0.01779  -0.12284   0.00002  -0.03963
  12        2PX        -0.18053   0.09691  -0.06512  -0.23827   0.09384
  13        2PY        -0.08111  -0.16790   0.11266  -0.13758  -0.24520
  14        2PZ         0.00000   0.00014  -0.00009   0.00002   0.00019
  15        3S         -0.06107   0.03701  -0.02463   0.00000  -0.03316
  16        3PX        -0.04429   0.03614  -0.07992  -0.08067   0.04861
  17        3PY        -0.00842  -0.06262   0.13842  -0.04661  -0.09969
  18        3PZ        -0.00001   0.00005  -0.00011   0.00001   0.00008
  19 3   C  1S          0.06581  -0.00905  -0.05642   0.00002   0.01645
  20        2S         -0.13455   0.01778   0.12284  -0.00004  -0.03950
  21        2PX        -0.03956   0.19386   0.13011  -0.00002   0.25846
  22        2PY         0.15804   0.00001   0.00005   0.27514   0.04170
  23        2PZ        -0.00011   0.00006   0.00004  -0.00018   0.00005
  24        3S         -0.12080   0.03700   0.02464  -0.00002  -0.03306
  25        3PX        -0.02936   0.07230   0.15984  -0.00004   0.11030
  26        3PY         0.03417   0.00001   0.00003   0.09317   0.00781
  27        3PZ        -0.00003   0.00002   0.00005  -0.00006   0.00003
  28 4   C  1S         -0.09907  -0.00904   0.05643  -0.00001  -0.00005
  29        2S          0.20256   0.01778  -0.12285   0.00003   0.00012
  30        2PX        -0.00387   0.09693  -0.06496   0.23828  -0.07232
  31        2PY         0.07102   0.16787  -0.11263  -0.13755   0.04080
  32        2PZ        -0.00005  -0.00008   0.00005   0.00016  -0.00005
  33        3S          0.18187   0.03698  -0.02465   0.00000   0.00010
  34        3PX         0.01483   0.03616  -0.07988   0.08071  -0.01364
  35        3PY         0.04248   0.06262  -0.13839  -0.04656   0.00747
  36        3PZ        -0.00002  -0.00003   0.00006   0.00005  -0.00001
  37 5   C  1S          0.03327  -0.00905  -0.05642   0.00001  -0.01650
  38        2S         -0.06802   0.01779   0.12284  -0.00002   0.03963
  39        2PX         0.18053  -0.09691  -0.06512  -0.23827   0.09384
  40        2PY         0.08111   0.16790   0.11266  -0.13758  -0.24520
  41        2PZ         0.00000  -0.00014  -0.00009   0.00002   0.00019
  42        3S         -0.06107   0.03701   0.02463   0.00000   0.03316
  43        3PX         0.04429  -0.03614  -0.07992  -0.08067   0.04861
  44        3PY         0.00842   0.06262   0.13842  -0.04661  -0.09969
  45        3PZ         0.00001  -0.00005  -0.00011   0.00001   0.00008
  46 6   C  1S          0.06581  -0.00905   0.05642  -0.00002  -0.01645
  47        2S         -0.13455   0.01778  -0.12284   0.00004   0.03950
  48        2PX         0.03956  -0.19386   0.13011  -0.00002   0.25846
  49        2PY        -0.15804  -0.00001   0.00005   0.27514   0.04170
  50        2PZ         0.00011  -0.00006   0.00004  -0.00018   0.00005
  51        3S         -0.12080   0.03700  -0.02464   0.00002   0.03306
  52        3PX         0.02936  -0.07230   0.15984  -0.00004   0.11030
  53        3PY        -0.03417  -0.00001   0.00003   0.09317   0.00781
  54        3PZ         0.00003  -0.00002   0.00005  -0.00006   0.00003
  55 7   H  1S          0.11258   0.11111   0.14011  -0.00003   0.00047
  56        2S          0.03879   0.06378   0.05452  -0.00001   0.00035
  57 8   H  1S         -0.03780   0.11112  -0.14016   0.00004   0.14583
  58        2S         -0.01302   0.06379  -0.05455   0.00002   0.10993
  59 9   H  1S         -0.07477   0.11112   0.14016  -0.00003   0.14537
  60        2S         -0.02576   0.06379   0.05455  -0.00001   0.10958
  61 10  H  1S          0.11258   0.11111  -0.14011   0.00003  -0.00047
  62        2S          0.03879   0.06378  -0.05452   0.00001  -0.00035
  63 11  H  1S         -0.03780   0.11112   0.14016  -0.00004  -0.14583
  64        2S         -0.01302   0.06379   0.05455  -0.00002  -0.10993
  65 12  H  1S         -0.07477   0.11112  -0.14016   0.00003  -0.14537
  66        2S         -0.02576   0.06379  -0.05455   0.00001  -0.10958
                          16        17        18        19        20
                           O         O         O         O         O
     Eigenvalues --    -0.58436  -0.49746  -0.48653  -0.48651  -0.33259
   1 1   C  1S         -0.01903   0.00000   0.00037  -0.00382   0.00000
   2        2S          0.04569   0.00000  -0.00095   0.00971   0.00000
   3        2PX         0.14929  -0.00006   0.21354   0.13358   0.00001
   4        2PY         0.25900   0.00014  -0.14843   0.18088  -0.00002
   5        2PZ        -0.00012   0.21105   0.00016  -0.00008  -0.03031
   6        3S          0.03825   0.00000  -0.00107   0.01091   0.00000
   7        3PX         0.06377  -0.00004   0.08554   0.08770   0.00001
   8        3PY         0.11051   0.00009  -0.06707   0.13091  -0.00002
   9        3PZ        -0.00005   0.13798   0.00007  -0.00006  -0.02599
  10 2   C  1S         -0.00948   0.00000  -0.00350   0.00159   0.00000
  11        2S          0.02277   0.00000   0.00889  -0.00403   0.00000
  12        2PX        -0.13672  -0.00006  -0.19546  -0.15887  -0.00008
  13        2PY         0.09279   0.00014   0.12316  -0.19894   0.00017
  14        2PZ        -0.00010   0.21105  -0.00014   0.00008   0.25782
  15        3S          0.01908   0.00000   0.00999  -0.00452   0.00000
  16        3PX        -0.04341  -0.00004  -0.11063  -0.05259  -0.00007
  17        3PY         0.04822   0.00009   0.10219  -0.10581   0.00014
  18        3PZ        -0.00004   0.13798  -0.00010   0.00005   0.22111
  19 3   C  1S          0.00957   0.00000   0.00312   0.00224   0.00000
  20        2S         -0.02299   0.00000  -0.00794  -0.00568   0.00000
  21        2PX         0.15014  -0.00006   0.18262   0.13055  -0.00009
  22        2PY        -0.07179   0.00014  -0.15143   0.21181   0.00018
  23        2PZ         0.00009   0.21105   0.00015  -0.00010   0.28813
  24        3S         -0.01926   0.00000  -0.00892  -0.00638   0.00000
  25        3PX         0.06407  -0.00004   0.12850   0.09187  -0.00008
  26        3PY        -0.01345   0.00009  -0.06287   0.08797   0.00016
  27        3PZ         0.00003   0.13798   0.00008  -0.00003   0.24710
  28 4   C  1S          0.01903   0.00000   0.00037  -0.00382   0.00000
  29        2S         -0.04569   0.00000  -0.00095   0.00971   0.00000
  30        2PX         0.14929  -0.00006  -0.21354  -0.13358  -0.00001
  31        2PY         0.25900   0.00013   0.14843  -0.18088   0.00002
  32        2PZ        -0.00012   0.21105  -0.00016   0.00007   0.03031
  33        3S         -0.03825   0.00000  -0.00107   0.01091   0.00000
  34        3PX         0.06377  -0.00004  -0.08554  -0.08770  -0.00001
  35        3PY         0.11051   0.00009   0.06707  -0.13091   0.00002
  36        3PZ        -0.00005   0.13798  -0.00007   0.00006   0.02599
  37 5   C  1S          0.00948   0.00000  -0.00350   0.00159   0.00000
  38        2S         -0.02277   0.00000   0.00889  -0.00403   0.00000
  39        2PX        -0.13672  -0.00006   0.19546   0.15887   0.00008
  40        2PY         0.09279   0.00014  -0.12316   0.19894  -0.00017
  41        2PZ        -0.00010   0.21105   0.00014  -0.00008  -0.25782
  42        3S         -0.01908   0.00000   0.00999  -0.00452   0.00000
  43        3PX        -0.04341  -0.00004   0.11063   0.05259   0.00007
  44        3PY         0.04822   0.00009  -0.10219   0.10581  -0.00014
  45        3PZ        -0.00004   0.13798   0.00010  -0.00005  -0.22111
  46 6   C  1S         -0.00957   0.00000   0.00312   0.00224   0.00000
  47        2S          0.02299   0.00000  -0.00794  -0.00568   0.00000
  48        2PX         0.15014  -0.00006  -0.18262  -0.13055   0.00009
  49        2PY        -0.07179   0.00013   0.15143  -0.21181  -0.00018
  50        2PZ         0.00009   0.21105  -0.00015   0.00010  -0.28813
  51        3S          0.01926   0.00000  -0.00892  -0.00638   0.00000
  52        3PX         0.06407  -0.00004  -0.12850  -0.09187   0.00008
  53        3PY        -0.01345   0.00009   0.06287  -0.08797  -0.00016
  54        3PZ         0.00003   0.13798  -0.00008   0.00003  -0.24710
  55 7   H  1S         -0.16815   0.00000   0.01642  -0.16865   0.00000
  56        2S         -0.12676   0.00000   0.01253  -0.12868   0.00000
  57 8   H  1S         -0.08363   0.00000  -0.15426   0.07011   0.00000
  58        2S         -0.06305   0.00000  -0.11769   0.05349   0.00000
  59 9   H  1S          0.08443   0.00000   0.13784   0.09854   0.00000
  60        2S          0.06366   0.00000   0.10517   0.07518   0.00000
  61 10  H  1S          0.16815   0.00000   0.01642  -0.16865   0.00000
  62        2S          0.12676   0.00000   0.01253  -0.12868   0.00000
  63 11  H  1S          0.08363   0.00000  -0.15426   0.07011   0.00000
  64        2S          0.06305   0.00000  -0.11769   0.05349   0.00000
  65 12  H  1S         -0.08443   0.00000   0.13784   0.09854   0.00000
  66        2S         -0.06366   0.00000   0.10517   0.07518   0.00000
                          21        22        23        24        25
                           O         V         V         V         V
     Eigenvalues --    -0.33257   0.14508   0.14508   0.23202   0.28912
   1 1   C  1S          0.00000   0.00000   0.00000   0.03744  -0.01613
   2        2S          0.00000   0.00000   0.00000  -0.04473   0.00609
   3        2PX        -0.00010   0.00003  -0.00009   0.05372  -0.06097
   4        2PY         0.00020  -0.00005   0.00019   0.09303  -0.06712
   5        2PZ         0.31521  -0.08411   0.30281  -0.00004   0.00002
   6        3S          0.00000   0.00000   0.00000  -0.56194   0.46210
   7        3PX        -0.00008   0.00005  -0.00017   0.15788   0.05155
   8        3PY         0.00017  -0.00010   0.00036   0.27350  -0.37250
   9        3PZ         0.27033  -0.15654   0.56357  -0.00013   0.00026
  10 2   C  1S          0.00000   0.00000   0.00000   0.03744   0.02119
  11        2S          0.00000   0.00000   0.00000  -0.04474  -0.00800
  12        2PX        -0.00006  -0.00009   0.00002  -0.05369  -0.07341
  13        2PY         0.00012   0.00020  -0.00005   0.09303   0.09205
  14        2PZ         0.18385   0.30430  -0.07857  -0.00008  -0.00008
  15        3S          0.00000   0.00000   0.00000  -0.56195  -0.60730
  16        3PX        -0.00005  -0.00017   0.00004  -0.15787  -0.01229
  17        3PY         0.00010   0.00037  -0.00009   0.27347   0.44316
  18        3PZ         0.15767   0.56634  -0.14621  -0.00022  -0.00029
  19 3   C  1S          0.00000   0.00000   0.00000   0.03744   0.03733
  20        2S          0.00000   0.00000   0.00000  -0.04474  -0.01412
  21        2PX         0.00004   0.00007   0.00007  -0.10742  -0.20504
  22        2PY        -0.00008  -0.00014  -0.00014  -0.00001   0.00167
  23        2PZ        -0.13136  -0.22018  -0.22425  -0.00003  -0.00006
  24        3S          0.00000   0.00000   0.00000  -0.56195  -1.06922
  25        3PX         0.00003   0.00013   0.00013  -0.31578  -0.68707
  26        3PY        -0.00007  -0.00026  -0.00027  -0.00007  -0.02006
  27        3PZ        -0.11265  -0.40979  -0.41736  -0.00010  -0.00020
  28 4   C  1S          0.00000   0.00000   0.00000   0.03744   0.01613
  29        2S          0.00000   0.00000   0.00000  -0.04473  -0.00609
  30        2PX         0.00010   0.00003  -0.00009  -0.05372  -0.06097
  31        2PY        -0.00020  -0.00005   0.00019  -0.09303  -0.06712
  32        2PZ        -0.31521  -0.08411   0.30281   0.00004   0.00002
  33        3S          0.00000   0.00000   0.00000  -0.56194  -0.46210
  34        3PX         0.00008   0.00005  -0.00017  -0.15788   0.05155
  35        3PY        -0.00017  -0.00010   0.00036  -0.27350  -0.37250
  36        3PZ        -0.27033  -0.15654   0.56357   0.00013   0.00026
  37 5   C  1S          0.00000   0.00000   0.00000   0.03744  -0.02119
  38        2S          0.00000   0.00000   0.00000  -0.04474   0.00800
  39        2PX         0.00006  -0.00009   0.00002   0.05369  -0.07341
  40        2PY        -0.00012   0.00020  -0.00005  -0.09303   0.09205
  41        2PZ        -0.18385   0.30430  -0.07857   0.00008  -0.00008
  42        3S          0.00000   0.00000   0.00000  -0.56195   0.60730
  43        3PX         0.00005  -0.00017   0.00004   0.15787  -0.01229
  44        3PY        -0.00010   0.00036  -0.00009  -0.27347   0.44316
  45        3PZ        -0.15767   0.56634  -0.14621   0.00022  -0.00029
  46 6   C  1S          0.00000   0.00000   0.00000   0.03744  -0.03733
  47        2S          0.00000   0.00000   0.00000  -0.04474   0.01412
  48        2PX        -0.00004   0.00007   0.00007   0.10742  -0.20504
  49        2PY         0.00008  -0.00014  -0.00014   0.00001   0.00167
  50        2PZ         0.13136  -0.22018  -0.22425   0.00003  -0.00006
  51        3S          0.00000   0.00000   0.00000  -0.56195   1.06922
  52        3PX        -0.00003   0.00013   0.00013   0.31578  -0.68707
  53        3PY         0.00007  -0.00026  -0.00027   0.00007  -0.02006
  54        3PZ         0.11265  -0.40979  -0.41736   0.00010  -0.00020
  55 7   H  1S          0.00000   0.00000   0.00000   0.03843  -0.00542
  56        2S          0.00000   0.00000   0.00000   0.78938  -0.57421
  57 8   H  1S          0.00000   0.00000   0.00000   0.03843   0.00713
  58        2S          0.00000   0.00000   0.00000   0.78934   0.75449
  59 9   H  1S          0.00000   0.00000   0.00000   0.03843   0.01255
  60        2S          0.00000   0.00000   0.00000   0.78935   1.32896
  61 10  H  1S          0.00000   0.00000   0.00000   0.03843   0.00542
  62        2S          0.00000   0.00000   0.00000   0.78938   0.57421
  63 11  H  1S          0.00000   0.00000   0.00000   0.03843  -0.00713
  64        2S          0.00000   0.00000   0.00000   0.78934  -0.75449
  65 12  H  1S          0.00000   0.00000   0.00000   0.03843  -0.01255
  66        2S          0.00000   0.00000   0.00000   0.78935  -1.32896
                          26        27        28        29        30
                           V         V         V         V         V
     Eigenvalues --     0.28912   0.32874   0.32875   0.33392   0.35957
   1 1   C  1S          0.03377   0.01334  -0.07925  -0.04645   0.00000
   2        2S         -0.01274  -0.01486   0.08827   0.13394   0.00000
   3        2PX         0.08486  -0.04179  -0.05788  -0.02855  -0.00007
   4        2PY         0.16532   0.04334  -0.08078  -0.04946   0.00015
   5        2PZ        -0.00008  -0.00004   0.00003   0.00002   0.24053
   6        3S         -0.96804  -0.25988   1.54455  -0.44478   0.00000
   7        3PX         0.40625  -0.30818  -0.41595  -0.75157  -0.00021
   8        3PY         0.48312   0.31549  -0.57741  -1.30152   0.00043
   9        3PZ        -0.00019  -0.00030   0.00024   0.00061   0.67839
  10 2   C  1S          0.03087  -0.07530   0.02808   0.04644   0.00000
  11        2S         -0.01171   0.08388  -0.03128  -0.13396   0.00000
  12        2PX        -0.07431   0.06474   0.03011  -0.02852   0.00007
  13        2PY         0.15287  -0.07114   0.05783   0.04939  -0.00015
  14        2PZ        -0.00012   0.00007  -0.00003  -0.00004  -0.24053
  15        3S         -0.88394   1.46735  -0.54724   0.44543   0.00000
  16        3PX        -0.40958   0.46662   0.22411  -0.75110   0.00021
  17        3PY         0.41986  -0.50754   0.41902   1.30166  -0.00044
  18        3PZ        -0.00040   0.00047  -0.00020  -0.00107  -0.67840
  19 3   C  1S         -0.00293   0.06196   0.05118  -0.04644   0.00000
  20        2S          0.00114  -0.06901  -0.05702   0.13396   0.00000
  21        2PX         0.01606  -0.07735  -0.06386   0.05704  -0.00007
  22        2PY         0.02124   0.03737  -0.04525   0.00001   0.00015
  23        2PZ        -0.00001  -0.00005   0.00001   0.00002   0.24053
  24        3S          0.08354  -1.20744  -0.99738  -0.44534   0.00000
  25        3PX         0.05417  -0.55371  -0.45720   1.50286  -0.00021
  26        3PY        -0.25507   0.27418  -0.33215   0.00025   0.00043
  27        3PZ         0.00018  -0.00035   0.00007   0.00046   0.67841
  28 4   C  1S         -0.03377   0.01334  -0.07925   0.04645   0.00000
  29        2S          0.01274  -0.01486   0.08827  -0.13394   0.00000
  30        2PX         0.08486   0.04179   0.05788  -0.02855   0.00007
  31        2PY         0.16532  -0.04334   0.08078  -0.04946  -0.00015
  32        2PZ        -0.00008   0.00004  -0.00003   0.00002  -0.24053
  33        3S          0.96804  -0.25988   1.54455   0.44478   0.00000
  34        3PX         0.40625   0.30818   0.41595  -0.75157   0.00021
  35        3PY         0.48312  -0.31549   0.57741  -1.30152  -0.00043
  36        3PZ        -0.00019   0.00030  -0.00024   0.00061  -0.67839
  37 5   C  1S         -0.03087  -0.07530   0.02808  -0.04644   0.00000
  38        2S          0.01171   0.08388  -0.03128   0.13396   0.00000
  39        2PX        -0.07431  -0.06474  -0.03011  -0.02852  -0.00007
  40        2PY         0.15287   0.07114  -0.05783   0.04939   0.00015
  41        2PZ        -0.00012  -0.00007   0.00003  -0.00004   0.24053
  42        3S          0.88394   1.46735  -0.54724  -0.44543   0.00000
  43        3PX        -0.40958  -0.46662  -0.22411  -0.75110  -0.00021
  44        3PY         0.41986   0.50754  -0.41902   1.30166   0.00044
  45        3PZ        -0.00040  -0.00047   0.00020  -0.00107   0.67840
  46 6   C  1S          0.00293   0.06196   0.05118   0.04644   0.00000
  47        2S         -0.00114  -0.06901  -0.05702  -0.13396   0.00000
  48        2PX         0.01606   0.07735   0.06386   0.05704   0.00007
  49        2PY         0.02124  -0.03737   0.04525   0.00001  -0.00015
  50        2PZ        -0.00001   0.00005  -0.00001   0.00002  -0.24053
  51        3S         -0.08354  -1.20744  -0.99738   0.44534   0.00000
  52        3PX         0.05417   0.55371   0.45720   1.50286   0.00021
  53        3PY        -0.25507  -0.27418   0.33215   0.00025  -0.00044
  54        3PZ         0.00018   0.00034  -0.00007   0.00046  -0.67841
  55 7   H  1S          0.01135  -0.00214   0.01268  -0.02411   0.00000
  56        2S          1.20260   0.23230  -1.38075  -1.34865   0.00000
  57 8   H  1S          0.01038   0.01205  -0.00449   0.02411   0.00000
  58        2S          1.09907  -1.31202   0.48923   1.34824   0.00000
  59 9   H  1S         -0.00098  -0.00991  -0.00819  -0.02411   0.00000
  60        2S         -0.10435   1.07967   0.89165  -1.34832   0.00000
  61 10  H  1S         -0.01135  -0.00214   0.01268   0.02411   0.00000
  62        2S         -1.20260   0.23230  -1.38075   1.34865   0.00000
  63 11  H  1S         -0.01038   0.01205  -0.00449  -0.02411   0.00000
  64        2S         -1.09907  -1.31202   0.48923  -1.34824   0.00000
  65 12  H  1S          0.00098  -0.00991  -0.00819   0.02411   0.00000
  66        2S          0.10435   1.07967   0.89165   1.34832   0.00000
                          31        32        33        34        35
                           V         V         V         V         V
     Eigenvalues --     0.46864   0.46866   0.49455   0.49455   0.68320
   1 1   C  1S         -0.07686   0.00011   0.01843  -0.04662  -0.00002
   2        2S          0.05681  -0.00009  -0.00566   0.01430   0.00001
   3        2PX         0.10118  -0.00769  -0.20008  -0.05543  -0.30868
   4        2PY         0.17524   0.00408   0.09684   0.07928   0.17824
   5        2PZ        -0.00008  -0.00001  -0.00012  -0.00007  -0.00021
   6        3S          2.25973  -0.00329  -0.80036   2.02433   0.00084
   7        3PX         0.88447   0.83513  -1.87509  -0.58611   0.46123
   8        3PY         1.52876  -0.48533   0.96011   0.64858  -0.26567
   9        3PZ        -0.00071   0.00057  -0.00119  -0.00059   0.00031
  10 2   C  1S          0.03853   0.06651  -0.03116  -0.03926   0.00002
  11        2S         -0.02851  -0.04916   0.00955   0.01204   0.00002
  12        2PX         0.04423   0.09128  -0.17536   0.11111   0.30880
  13        2PY        -0.09163  -0.14946  -0.06965   0.10391   0.17825
  14        2PZ         0.00007   0.00012  -0.00001  -0.00003  -0.00002
  15        3S         -1.13259  -1.95582   1.35303   1.70529  -0.00105
  16        3PX         1.16662   0.34433  -1.62475   1.10461  -0.46016
  17        3PY        -0.34907  -1.56601  -0.73050   0.89878  -0.26639
  18        3PZ         0.00058   0.00111  -0.00003  -0.00024   0.00003
  19 3   C  1S          0.03834  -0.06663  -0.04958   0.00734  -0.00001
  20        2S         -0.02836   0.04925   0.01520  -0.00225   0.00003
  21        2PX         0.10093  -0.17538  -0.04351   0.00644   0.00000
  22        2PY         0.00752   0.00431   0.03488   0.23579  -0.35654
  23        2PZ         0.00003  -0.00006  -0.00004  -0.00015   0.00023
  24        3S         -1.12686   1.95913   2.15335  -0.31885   0.00044
  25        3PX         0.88090  -1.53108  -0.28565   0.04229  -0.00046
  26        3PY        -0.83722  -0.48219   0.33166   2.23789   0.53183
  27        3PZ         0.00081  -0.00016  -0.00030  -0.00142  -0.00034
  28 4   C  1S         -0.07686   0.00011  -0.01843   0.04662   0.00002
  29        2S          0.05681  -0.00009   0.00566  -0.01430  -0.00001
  30        2PX        -0.10118   0.00769  -0.20008  -0.05542  -0.30868
  31        2PY        -0.17524  -0.00408   0.09684   0.07928   0.17824
  32        2PZ         0.00008   0.00001  -0.00012  -0.00007  -0.00021
  33        3S          2.25973  -0.00329   0.80036  -2.02433  -0.00084
  34        3PX        -0.88447  -0.83513  -1.87509  -0.58611   0.46123
  35        3PY        -1.52876   0.48533   0.96011   0.64858  -0.26567
  36        3PZ         0.00071  -0.00057  -0.00119  -0.00059   0.00031
  37 5   C  1S          0.03853   0.06651   0.03116   0.03926  -0.00002
  38        2S         -0.02851  -0.04916  -0.00955  -0.01204  -0.00002
  39        2PX        -0.04423  -0.09128  -0.17536   0.11111   0.30880
  40        2PY         0.09163   0.14946  -0.06965   0.10391   0.17825
  41        2PZ        -0.00007  -0.00012  -0.00001  -0.00003  -0.00002
  42        3S         -1.13259  -1.95582  -1.35303  -1.70529   0.00105
  43        3PX        -1.16662  -0.34433  -1.62475   1.10461  -0.46016
  44        3PY         0.34907   1.56601  -0.73050   0.89878  -0.26639
  45        3PZ        -0.00058  -0.00111  -0.00003  -0.00024   0.00003
  46 6   C  1S          0.03834  -0.06663   0.04958  -0.00734   0.00001
  47        2S         -0.02836   0.04925  -0.01520   0.00225  -0.00003
  48        2PX        -0.10093   0.17538  -0.04351   0.00644   0.00000
  49        2PY        -0.00752  -0.00431   0.03488   0.23579  -0.35654
  50        2PZ        -0.00003   0.00006  -0.00004  -0.00015   0.00023
  51        3S         -1.12686   1.95913  -2.15335   0.31885  -0.00044
  52        3PX        -0.88090   1.53108  -0.28565   0.04229  -0.00046
  53        3PY         0.83722   0.48219   0.33166   2.23789   0.53183
  54        3PZ        -0.00081   0.00016  -0.00030  -0.00142  -0.00034
  55 7   H  1S          0.00978  -0.00001  -0.05077   0.12839   0.00000
  56        2S          1.03057  -0.00163   0.02480  -0.06271   0.00016
  57 8   H  1S         -0.00489  -0.00846   0.08583   0.10818  -0.00001
  58        2S         -0.51680  -0.89167  -0.04196  -0.05296  -0.00020
  59 9   H  1S         -0.00489   0.00847   0.13660  -0.02020  -0.00002
  60        2S         -0.51400   0.89329  -0.06686   0.00987   0.00010
  61 10  H  1S          0.00978  -0.00001   0.05077  -0.12839   0.00000
  62        2S          1.03057  -0.00163  -0.02480   0.06271  -0.00016
  63 11  H  1S         -0.00489  -0.00846  -0.08583  -0.10818   0.00001
  64        2S         -0.51680  -0.89167   0.04196   0.05296   0.00020
  65 12  H  1S         -0.00489   0.00847  -0.13660   0.02020   0.00002
  66        2S         -0.51400   0.89329   0.06686  -0.00987  -0.00010
                          36        37        38        39        40
                           V         V         V         V         V
     Eigenvalues --     0.75485   0.76873   0.76934   0.78220   0.83625
   1 1   C  1S          0.00000   0.00000  -0.11845  -0.00526  -0.00843
   2        2S          0.00000  -0.00008   0.07691   0.51156  -0.41129
   3        2PX        -0.00013   0.19526   0.05992   0.12729   0.04709
   4        2PY         0.00028  -0.11284   0.10364   0.22037   0.08158
   5        2PZ         0.43301   0.00013  -0.00005  -0.00010  -0.00004
   6        3S          0.00000  -0.00016   4.43118  -0.34574   0.57674
   7        3PX         0.00009   3.39893   1.66639  -0.10435  -0.14472
   8        3PY        -0.00019  -1.96261   2.88602  -0.18304  -0.25234
   9        3PZ        -0.30091   0.00230  -0.00134   0.00009   0.00012
  10 2   C  1S          0.00000   0.00002   0.11846  -0.00528  -0.00853
  11        2S          0.00000  -0.00009  -0.07690   0.51153  -0.41130
  12        2PX        -0.00013   0.19536   0.05981  -0.12736  -0.04745
  13        2PY         0.00028   0.11264  -0.10368   0.22045   0.08162
  14        2PZ         0.43301  -0.00001   0.00009  -0.00018  -0.00006
  15        3S          0.00000  -0.00052  -4.43172  -0.34604   0.57745
  16        3PX         0.00009   3.39887   1.66593   0.10666   0.14607
  17        3PY        -0.00020   1.96166  -2.88687  -0.18207  -0.25094
  18        3PZ        -0.30094  -0.00022   0.00236   0.00015   0.00020
  19 3   C  1S          0.00000  -0.00001  -0.11846  -0.00528  -0.00851
  20        2S          0.00000  -0.00008   0.07692   0.51154  -0.41131
  21        2PX        -0.00013   0.00005  -0.11970  -0.25458  -0.09438
  22        2PY         0.00028   0.22548   0.00007   0.00025   0.00043
  23        2PZ         0.43302  -0.00014  -0.00004  -0.00008  -0.00002
  24        3S          0.00000   0.00074   4.43173  -0.34607   0.57733
  25        3PX         0.00009  -0.00039  -3.33305   0.21103   0.29045
  26        3PY        -0.00019   3.92447  -0.00052   0.00087   0.00057
  27        3PZ        -0.30094  -0.00252  -0.00101   0.00006   0.00008
  28 4   C  1S          0.00000   0.00000   0.11845  -0.00526  -0.00843
  29        2S          0.00000  -0.00008  -0.07691   0.51156  -0.41129
  30        2PX        -0.00013  -0.19526   0.05992  -0.12729  -0.04709
  31        2PY         0.00028   0.11284   0.10364  -0.22037  -0.08158
  32        2PZ         0.43301  -0.00013  -0.00005   0.00010   0.00004
  33        3S          0.00000  -0.00016  -4.43118  -0.34574   0.57674
  34        3PX         0.00009  -3.39893   1.66639   0.10435   0.14472
  35        3PY        -0.00019   1.96261   2.88602   0.18304   0.25234
  36        3PZ        -0.30091  -0.00230  -0.00134  -0.00009  -0.00012
  37 5   C  1S          0.00000   0.00002  -0.11846  -0.00528  -0.00853
  38        2S          0.00000  -0.00009   0.07690   0.51153  -0.41130
  39        2PX        -0.00013  -0.19536   0.05981   0.12736   0.04745
  40        2PY         0.00028  -0.11264  -0.10368  -0.22045  -0.08162
  41        2PZ         0.43301   0.00001   0.00008   0.00018   0.00006
  42        3S          0.00000  -0.00052   4.43172  -0.34604   0.57745
  43        3PX         0.00009  -3.39888   1.66593  -0.10666  -0.14607
  44        3PY        -0.00020  -1.96165  -2.88687   0.18207   0.25094
  45        3PZ        -0.30094   0.00022   0.00236  -0.00015  -0.00020
  46 6   C  1S          0.00000  -0.00001   0.11846  -0.00528  -0.00851
  47        2S          0.00000  -0.00008  -0.07692   0.51154  -0.41131
  48        2PX        -0.00013  -0.00005  -0.11970   0.25458   0.09438
  49        2PY         0.00028  -0.22548   0.00007  -0.00025  -0.00043
  50        2PZ         0.43302   0.00014  -0.00004   0.00008   0.00003
  51        3S          0.00000   0.00075  -4.43173  -0.34607   0.57733
  52        3PX         0.00009   0.00039  -3.33305  -0.21103  -0.29045
  53        3PY        -0.00019  -3.92447  -0.00053  -0.00087  -0.00057
  54        3PZ        -0.30094   0.00252  -0.00102  -0.00006  -0.00008
  55 7   H  1S          0.00000   0.00009  -0.15986  -0.11427  -0.37705
  56        2S          0.00000  -0.00005   1.26834   0.13235  -0.09637
  57 8   H  1S          0.00000   0.00009   0.15991  -0.11435  -0.37734
  58        2S          0.00000  -0.00013  -1.26868   0.13215  -0.09608
  59 9   H  1S          0.00000   0.00014  -0.15989  -0.11433  -0.37730
  60        2S          0.00000   0.00003   1.26866   0.13215  -0.09614
  61 10  H  1S          0.00000   0.00009   0.15986  -0.11427  -0.37705
  62        2S          0.00000  -0.00005  -1.26834   0.13235  -0.09637
  63 11  H  1S          0.00000   0.00009  -0.15991  -0.11435  -0.37734
  64        2S          0.00000  -0.00013   1.26868   0.13215  -0.09608
  65 12  H  1S          0.00000   0.00014   0.15989  -0.11433  -0.37730
  66        2S          0.00000   0.00003  -1.26866   0.13215  -0.09614
[...]
  59 9   H  1S         -0.00022   0.00000  -0.00011  -0.00660   0.00224
  60        2S         -0.00265   0.00000  -0.00116  -0.00967   0.00005
  61 10  H  1S          0.07247   0.00000   0.02985   0.02157   0.06471
  62        2S          0.03506   0.00000   0.01188   0.01505   0.04515
  63 11  H  1S         -0.00012   0.00000  -0.00011  -0.00048  -0.00389
  64        2S         -0.00075   0.00000  -0.00116  -0.00519  -0.00444
  65 12  H  1S          0.00000   0.00000  -0.00001   0.00013  -0.00006
  66        2S          0.00003   0.00000   0.00014   0.00170   0.00004
                          36        37        38        39        40
  36        3PZ         0.18559
  37 5   C  1S          0.00000   2.06280
  38        2S          0.00000  -0.02359   0.32216
  39        2PX         0.00000   0.00000   0.00000   0.41220
  40        2PY         0.00000   0.00000   0.00000   0.00000   0.40795
  41        2PZ         0.03269   0.00000   0.00000   0.00000   0.00000
  42        3S          0.00000  -0.02874   0.18503   0.00000   0.00000
  43        3PX         0.00000   0.00000   0.00000   0.08779   0.00000
  44        3PY         0.00000   0.00000   0.00000   0.00000   0.11398
  45        3PZ         0.06203   0.00000   0.00000   0.00000   0.00000
  46 6   C  1S          0.00000   0.00000  -0.00054  -0.00067  -0.00198
  47        2S          0.00000  -0.00054   0.01129   0.01000   0.03042
  48        2PX         0.00000  -0.00066   0.01022   0.00028   0.02475
  49        2PY         0.00000  -0.00199   0.03020   0.02602   0.04900
  50        2PZ        -0.00101   0.00000   0.00000   0.00000   0.00000
  51        3S          0.00000  -0.00037   0.01683   0.01041   0.01839
  52        3PX         0.00000  -0.00093   0.01440  -0.00849   0.00458
  53        3PY         0.00000  -0.00081   0.01111   0.00938   0.00715
  54        3PZ        -0.00609   0.00000   0.00000   0.00000   0.00000
  55 7   H  1S          0.00000   0.00000   0.00000   0.00000   0.00000
  56        2S          0.00000   0.00000   0.00006   0.00001   0.00030
  57 8   H  1S          0.00000   0.00000   0.00000   0.00000   0.00000
  58        2S          0.00000   0.00000   0.00001   0.00000   0.00000
  59 9   H  1S          0.00000   0.00000   0.00000   0.00000   0.00000
  60        2S          0.00000   0.00000   0.00006   0.00028   0.00003
  61 10  H  1S          0.00000   0.00000  -0.00019  -0.00055  -0.00012
  62        2S          0.00000   0.00013  -0.00186  -0.00580  -0.00075
  63 11  H  1S          0.00000  -0.00200   0.03298   0.02415   0.07248
  64        2S          0.00000  -0.00114   0.01334   0.01168   0.03506
  65 12  H  1S          0.00000   0.00000  -0.00019  -0.00045  -0.00022
  66        2S          0.00000   0.00013  -0.00186  -0.00390  -0.00265
                          41        42        43        44        45
  41        2PZ         0.28964
  42        3S          0.00000   0.17792
  43        3PX         0.00000   0.00000   0.07119
  44        3PY         0.00000   0.00000   0.00000   0.12265
  45        3PZ         0.13118   0.00000   0.00000   0.00000   0.18558
  46 6   C  1S          0.00000  -0.00037   0.00006  -0.00179   0.00000
  47        2S          0.00000   0.01683  -0.00165   0.02716   0.00000
  48        2PX         0.00000   0.00399  -0.00564   0.00215   0.00000
  49        2PY         0.00000   0.02481   0.00696   0.00915   0.00000
  50        2PZ         0.01877   0.00000   0.00000   0.00000   0.03269
  51        3S          0.00000   0.01664   0.00317   0.01203   0.00000
  52        3PX         0.00000   0.00443  -0.02003  -0.00843   0.00000
  53        3PY         0.00000   0.01076   0.00338  -0.00263   0.00000
  54        3PZ         0.03269   0.00000   0.00000   0.00000   0.06203
  55 7   H  1S          0.00000  -0.00001   0.00003   0.00004   0.00000
  56        2S          0.00000   0.00014   0.00013   0.00161   0.00000
  57 8   H  1S          0.00000   0.00001   0.00000   0.00001   0.00000
  58        2S          0.00000   0.00021  -0.00003  -0.00010   0.00000
  59 9   H  1S          0.00000  -0.00001   0.00013  -0.00006   0.00000
  60        2S          0.00000   0.00014   0.00170   0.00004   0.00000
  61 10  H  1S          0.00000  -0.00011  -0.00048  -0.00388   0.00000
  62        2S          0.00000  -0.00116  -0.00519  -0.00443   0.00000
  63 11  H  1S          0.00000   0.02985   0.02156   0.06472   0.00000
  64        2S          0.00000   0.01188   0.01504   0.04515   0.00000
  65 12  H  1S          0.00000  -0.00011  -0.00660   0.00224   0.00000
  66        2S          0.00000  -0.00115  -0.00967   0.00005   0.00000
                          46        47        48        49        50
  46 6   C  1S          2.06280
  47        2S         -0.02359   0.32216
  48        2PX         0.00000   0.00000   0.40583
  49        2PY         0.00000   0.00000   0.00000   0.41432
  50        2PZ         0.00000   0.00000   0.00000   0.00000   0.28964
  51        3S         -0.02874   0.18503   0.00000   0.00000   0.00000
  52        3PX         0.00000   0.00000   0.12707   0.00000   0.00000
  53        3PY         0.00000   0.00000   0.00000   0.07470   0.00000
  54        3PZ         0.00000   0.00000   0.00000   0.00000   0.13118
  55 7   H  1S          0.00000  -0.00019  -0.00001  -0.00066   0.00000
  56        2S          0.00013  -0.00186  -0.00012  -0.00643   0.00000
  57 8   H  1S          0.00000   0.00000   0.00000   0.00000   0.00000
  58        2S          0.00000   0.00006   0.00018   0.00014   0.00000
  59 9   H  1S          0.00000   0.00000   0.00000   0.00000   0.00000
  60        2S          0.00000   0.00001   0.00000   0.00000   0.00000
  61 10  H  1S          0.00000   0.00000   0.00000   0.00000   0.00000
  62        2S          0.00000   0.00006   0.00018   0.00014   0.00000
  63 11  H  1S          0.00000  -0.00019  -0.00001  -0.00066   0.00000
  64        2S          0.00013  -0.00186  -0.00013  -0.00643   0.00000
  65 12  H  1S         -0.00200   0.03298   0.09663   0.00000   0.00000
  66        2S         -0.00114   0.01334   0.04674   0.00000   0.00000
                          51        52        53        54        55
  51        3S          0.17793
  52        3PX         0.00000   0.14836
  53        3PY         0.00000   0.00000   0.04548
  54        3PZ         0.00000   0.00000   0.00000   0.18558
  55 7   H  1S         -0.00011   0.00054  -0.00490   0.00000   0.21856
  56        2S         -0.00116   0.00043  -0.01005   0.00000   0.08410
  57 8   H  1S         -0.00001  -0.00005   0.00013   0.00000  -0.00001
  58        2S          0.00014   0.00078   0.00096   0.00000  -0.00017
  59 9   H  1S          0.00001   0.00002   0.00000   0.00000   0.00000
  60        2S          0.00021  -0.00013   0.00000   0.00000   0.00000
  61 10  H  1S         -0.00001  -0.00005   0.00013   0.00000   0.00000
  62        2S          0.00014   0.00078   0.00096   0.00000   0.00000
  63 11  H  1S         -0.00011   0.00054  -0.00490   0.00000   0.00000
  64        2S         -0.00115   0.00043  -0.01005   0.00000   0.00000
  65 12  H  1S          0.02985   0.08628   0.00000   0.00000  -0.00001
  66        2S          0.01188   0.06020   0.00000   0.00000  -0.00017
                          56        57        58        59        60
  56        2S          0.08334
  57 8   H  1S         -0.00017   0.21856
  58        2S          0.00005   0.08409   0.08332
  59 9   H  1S          0.00000  -0.00001  -0.00017   0.21856
  60        2S         -0.00010  -0.00017   0.00005   0.08409   0.08332
  61 10  H  1S          0.00000   0.00000   0.00000  -0.00001  -0.00017
  62        2S          0.00000   0.00000  -0.00010  -0.00017   0.00005
  63 11  H  1S          0.00000   0.00000   0.00000   0.00000   0.00000
  64        2S         -0.00010   0.00000   0.00000   0.00000  -0.00010
  65 12  H  1S         -0.00017   0.00000   0.00000   0.00000   0.00000
  66        2S          0.00005   0.00000  -0.00010   0.00000   0.00000
                          61        62        63        64        65
  61 10  H  1S          0.21856
  62        2S          0.08410   0.08334
  63 11  H  1S         -0.00001  -0.00017   0.21856
  64        2S         -0.00017   0.00005   0.08409   0.08332
  65 12  H  1S          0.00000   0.00000  -0.00001  -0.00017   0.21856
  66        2S          0.00000  -0.00010  -0.00017   0.00005   0.08409
                          66
  66        2S          0.08332
     Gross orbital populations:
                           1
   1 1   C  1S          1.99773
   2        2S          0.69608
   3        2PX         0.74992
   4        2PY         0.74030
   5        2PZ         0.52000
   6        3S          0.49136
   7        3PX         0.20654
   8        3PY         0.31810
   9        3PZ         0.48001
  10 2   C  1S          1.99773
  11        2S          0.69608
  12        2PX         0.74992
  13        2PY         0.74030
  14        2PZ         0.51999
  15        3S          0.49133
  16        3PX         0.20650
  17        3PY         0.31814
  18        3PZ         0.48000
  19 3   C  1S          1.99773
  20        2S          0.69609
  21        2PX         0.73549
  22        2PY         0.75474
  23        2PZ         0.52000
  24        3S          0.49133
  25        3PX         0.37391
  26        3PY         0.15072
  27        3PZ         0.48000
  28 4   C  1S          1.99773
  29        2S          0.69608
  30        2PX         0.74992
  31        2PY         0.74030
  32        2PZ         0.52000
  33        3S          0.49136
  34        3PX         0.20654
  35        3PY         0.31810
  36        3PZ         0.48001
  37 5   C  1S          1.99773
  38        2S          0.69608
  39        2PX         0.74992
  40        2PY         0.74030
  41        2PZ         0.51999
  42        3S          0.49133
  43        3PX         0.20650
  44        3PY         0.31814
  45        3PZ         0.48000
  46 6   C  1S          1.99773
  47        2S          0.69609
  48        2PX         0.73549
  49        2PY         0.75474
  50        2PZ         0.52000
  51        3S          0.49133
  52        3PX         0.37391
  53        3PY         0.15072
  54        3PZ         0.48000
  55 7   H  1S          0.53553
  56        2S          0.26447
  57 8   H  1S          0.53552
  58        2S          0.26445
  59 9   H  1S          0.53552
  60        2S          0.26445
  61 10  H  1S          0.53553
  62        2S          0.26447
  63 11  H  1S          0.53552
  64        2S          0.26445
  65 12  H  1S          0.53552
  66        2S          0.26445
          Condensed to atoms (all electrons):
               1          2          3          4          5          6
     1  C    4.983452   0.514623  -0.056228  -0.030926  -0.056225   0.514621
     2  C    0.514623   4.983396   0.514610  -0.056225  -0.030923  -0.056199
     3  C   -0.056228   0.514610   4.983408   0.514621  -0.056199  -0.030923
     4  C   -0.030926  -0.056225   0.514621   4.983452   0.514623  -0.056228
     5  C   -0.056225  -0.030923  -0.056199   0.514623   4.983396   0.514610
     6  C    0.514621  -0.056199  -0.030923  -0.056228   0.514610   4.983408
     7  H    0.374773  -0.024406   0.002314   0.000131   0.002314  -0.024406
     8  H   -0.024397   0.374762  -0.024394   0.002313   0.000131   0.002312
     9  H    0.002313  -0.024390   0.374764  -0.024404   0.002312   0.000131
    10  H    0.000131   0.002314  -0.024406   0.374773  -0.024406   0.002314
    11  H    0.002313   0.000131   0.002312  -0.024397   0.374762  -0.024394
    12  H   -0.024404   0.002312   0.000131   0.002313  -0.024390   0.374764
               7          8          9         10         11         12
     1  C    0.374773  -0.024397   0.002313   0.000131   0.002313  -0.024404
     2  C   -0.024406   0.374762  -0.024390   0.002314   0.000131   0.002312
     3  C    0.002314  -0.024394   0.374764  -0.024406   0.002312   0.000131
     4  C    0.000131   0.002313  -0.024404   0.374773  -0.024397   0.002313
     5  C    0.002314   0.000131   0.002312  -0.024406   0.374762  -0.024390
     6  C   -0.024406   0.002312   0.000131   0.002314  -0.024394   0.374764
     7  H    0.470094  -0.000305  -0.000103   0.000005  -0.000103  -0.000305
     8  H   -0.000305   0.470051  -0.000303  -0.000103   0.000005  -0.000103
     9  H   -0.000103  -0.000303   0.470055  -0.000305  -0.000103   0.000005
    10  H    0.000005  -0.000103  -0.000305   0.470094  -0.000305  -0.000103
    11  H   -0.000103   0.000005  -0.000103  -0.000305   0.470051  -0.000303
    12  H   -0.000305  -0.000103   0.000005  -0.000103  -0.000303   0.470055
 Mulliken charges:
               1
     1  C   -0.200044
     2  C   -0.200004
     3  C   -0.200009
     4  C   -0.200044
     5  C   -0.200004
     6  C   -0.200009
     7  H    0.199998
     8  H    0.200031
     9  H    0.200028
    10  H    0.199998
    11  H    0.200031
    12  H    0.200028
 Sum of Mulliken charges =   0.00000
 Mulliken charges with hydrogens summed into heavy atoms:
               1
     1  C   -0.000047
     2  C    0.000028
     3  C    0.000019
     4  C   -0.000047
     5  C    0.000028
     6  C    0.000019
 Electronic spatial extent (au):  <R**2>=            656.2926
 Charge=              0.0000 electrons
 Dipole moment (field-independent basis, Debye):
    X=              0.0000    Y=              0.0000    Z=              0.0000  Tot=              0.0000
 Quadrupole moment (field-independent basis, Debye-Ang):
   XX=            -31.7056   YY=            -31.7061   ZZ=            -40.4426
   XY=             -0.0004   XZ=              0.0027   YZ=             -0.0056
 Traceless Quadrupole moment (field-independent basis, Debye-Ang):
   XX=              2.9125   YY=              2.9120   ZZ=             -5.8245
   XY=             -0.0004   XZ=              0.0027   YZ=             -0.0056
 Octapole moment (field-independent basis, Debye-Ang**2):
  XXX=            -46.8331  YYY=            -97.8747  ZZZ=              0.0598  XYY=            -15.6122
  XXY=            -32.6247  XXZ=              0.0183  XZZ=            -19.9129  YZZ=            -41.6145
  YYZ=              0.0041  XYZ=              0.0000
 Hexadecapole moment (field-independent basis, Debye-Ang**3):
 XXXX=           -313.7866 YYYY=           -469.0816 ZZZZ=            -43.9158 XXXY=            -48.1834
 XXXZ=              0.0011 YYYX=            -48.1924 YYYZ=              0.0808 ZZZX=             -0.0149
 ZZZY=              0.1547 XXYY=           -130.4801 XXZZ=            -72.8210 YYZZ=           -105.8346
 XXYZ=              0.0342 YYXZ=             -0.0032 ZZXY=            -20.4880
 N-N= 2.029242874433D+02 E-N=-9.426736213106D+02  KE= 2.306035661590D+02
 Orbital energies and kinetic energies (alpha):
                                 1                 2
   1         O               -11.240261         16.010338
   2         O               -11.239729         16.014869
   3         O               -11.239726         16.014870
   4         O               -11.238561         16.025233
   5         O               -11.238558         16.025233
   6         O               -11.237997         16.031461
   7         O                -1.149124          1.463697
   8         O                -1.012511          1.579863
   9         O                -1.012493          1.579842
  10         O                -0.819961          1.439933
  11         O                -0.819946          1.439945
  12         O                -0.706812          0.923145
  13         O                -0.637245          1.259299
  14         O                -0.614888          1.440110
  15         O                -0.584392          1.180537
  16         O                -0.584356          1.180593
  17         O                -0.497457          0.878821
  18         O                -0.486527          1.370459
  19         O                -0.486509          1.370468
  20         O                -0.332585          1.036527
  21         O                -0.332572          1.036540
  22         V                 0.145077          1.180012
  23         V                 0.145084          1.180028
  24         V                 0.232018          0.799035
  25         V                 0.289120          0.827372
  26         V                 0.289121          0.827369
  27         V                 0.328741          1.026403
  28         V                 0.328753          1.026472
  29         V                 0.333922          0.937183
  30         V                 0.359575          1.396155
  31         V                 0.468643          1.329973
  32         V                 0.468661          1.329946
  33         V                 0.494547          1.332730
  34         V                 0.494549          1.332770
  35         V                 0.683202          1.494800
  36         V                 0.754855          2.064317
  37         V                 0.768729          1.573993
  38         V                 0.769340          2.919095
  39         V                 0.782202          1.771515
  40         V                 0.836254          1.600281
  41         V                 0.845345          2.179189
  42         V                 0.845349          2.179193
  43         V                 0.872638          2.692771
  44         V                 0.872666          2.692777
  45         V                 0.896788          2.087673
  46         V                 0.896804          2.087646
  47         V                 0.915281          2.402052
  48         V                 0.915284          2.402042
  49         V                 0.990521          2.484950
  50         V                 1.132041          3.182661
  51         V                 1.132639          2.982955
  52         V                 1.132650          2.982978
  53         V                 1.162618          2.942707
  54         V                 1.162637          2.942756
  55         V                 1.241614          2.917632
  56         V                 1.269557          2.977519
  57         V                 1.269604          2.977719
  58         V                 1.270226          3.534468
  59         V                 1.358122          2.409748
  60         V                 1.358130          2.409677
  61         V                 1.434633          2.375317
  62         V                 1.434645          2.375363
  63         V                 1.473821          2.510131
  64         V                 1.722803          2.656242
  65         V                 1.722854          2.656279
  66         V                 2.162859          2.966660
 Total kinetic energy from orbitals= 2.306035661590D+02
 Unable to Open any file for archive entry.
 1\1\GINC-MEDUSA\SP\RCIS-Full\6-31G\C6H6\PLESTRAN\26-Oct-2015\0\\# hf/6
 -31G gfinput pop=full nosymm cis(full,nstates=12,50-50)\\Benzene 6-31G
 \\0,1\C,0,-0.2069851582,-0.182179772,0.0000714421\C,0,1.1916738876,-0.
 1823529436,0.0004985861\C,0,1.8910553573,1.0288676731,-0.0000660445\C,
 0,1.1917349868,2.2401336715,-0.0010564977\C,0,-0.206924055,2.240306849
 3,-0.0014838269\C,0,-0.9063055337,1.0290862369,-0.0009191682\H,0,-0.75
 0746176,-1.1238955859,0.0005098114\H,0,1.7352854346,-1.124149144,0.001
 2705069\H,0,2.9784784245,1.0289339946,0.0002669247\H,0,1.7354959994,3.
 1818494841,-0.0014954845\H,0,-0.7505356043,3.1821030485,-0.0022553738\
 H,0,-1.9937286031,1.0290199075,-0.0012518757\\Version=ES64L-GDVRevI.03
 +\HF=-230.622952\MP2=-231.1477836\EFC=0.\RMSD=2.142e-09\PG=CI [X(C6H6)
 ]\\@
 The archive entry for this job was punched.


 Other things may change us, but we start and end with family.
 -- Anthony Brandt
 Job cpu time:       0 days  0 hours  0 minutes  3.2 seconds.
 Elapsed time:       0 days  0 hours  0 minutes  3.0 seconds.
 File lengths (MBytes):  RWF=     91 Int=      0 D2E=      0 Chk=      6 Scr=      1
 Normal termination of Gaussian DV at Mon Oct 26 18:16:34 2015.
