 Entering Gaussian System, Link 0=gdv
 Input=benzene_6-31G_CIS.com
 Output=benzene_6-31G_CIS.log
 Initial command:
 /home/gauss/gdvi03p/gdv/l1.exe "/home/GauScr/Gau-28423.inp" -scrdir="/home/GauScr/"
 Entering Link 1 = /home/gauss/gdvi03p/gdv/l1.exe PID=     28424.
  
 Copyright (c) 1988,1990,1992,1993,1995,1998,2003,2009,2015,
            Gaussian, Inc.  All Rights Reserved.
  
 This is the private, development version of
 the Gaussian(R) DV system of programs. It is based on
 the Gaussian(R) 09 system (copyright 2009, Gaussian, Inc.),
 the Gaussian(R) 03 system (copyright 2003, Gaussian, Inc.),
 the Gaussian(R) 98 system (copyright 1998, Gaussian, Inc.),
 the Gaussian(R) 94 system (copyright 1995, Gaussian, Inc.),
 the Gaussian 92(TM) system (copyright 1992, Gaussian, Inc.),
 the Gaussian 90(TM) system (copyright 1990, Gaussian, Inc.),
 the Gaussian 88(TM) system (copyright 1988, Gaussian, Inc.),
 the Gaussian 86(TM) system (copyright 1986, Carnegie Mellon
 University), and the Gaussian 82(TM) system (copyright 1983,
 Carnegie Mellon University). Gaussian is a federally registered
 trademark of Gaussian, Inc.
  
 This software contains proprietary and confidential information,
 including trade secrets, belonging to Gaussian, Inc.
  
 This software is provided under written license and may be
 used, copied, transmitted, or stored only in accord with that
 written license.
  
 The following legend is applicable only to US Government
 contracts under FAR:
  
                    RESTRICTED RIGHTS LEGEND
  
 Use, reproduction and disclosure by the US Government is
 subject to restrictions as set forth in subparagraphs (a)
 and (c) of the Commercial Computer Software - Restricted
 Rights clause in FAR 52.227-19.
  
 Gaussian, Inc.
 340 Quinnipiac St., Bldg. 40, Wallingford CT 06492
  
  
 ---------------------------------------------------------------
 Warning -- This program may not be used in any manner that
 competes with the business of Gaussian, Inc. or will provide
 assistance to any competitor of Gaussian, Inc.  The licensee
 of this program is prohibited from giving any competitor of
 Gaussian, Inc. access to this program.  By using this program,
 the user acknowledges that Gaussian, Inc. is engaged in the
 business of creating and licensing software in the field of
 computational chemistry and represents and warrants to the
 licensee that it is not a competitor of Gaussian, Inc. and that
 it will not use this program in any manner prohibited above.
 ---------------------------------------------------------------
  

 Cite this work as:
 Gaussian Development Version, Revision I.03+,
 M. J. Frisch, G. W. Trucks, H. B. Schlegel, G. E. Scuseria, 
 M. A. Robb, J. R. Cheeseman, G. Scalmani, V. Barone, B. Mennucci, 
 G. A. Petersson, H. Nakatsuji, M. Caricato, X. Li, H. P. Hratchian, 
 J. Bloino, B. G. Janesko, A. F. Izmaylov, A. Marenich, F. Lipparini, 
 G. Zheng, J. L. Sonnenberg, W. Liang, M. Hada, M. Ehara, K. Toyota, 
 R. Fukuda, J. Hasegawa, M. Ishida, T. Nakajima, Y. Honda, O. Kitao, 
 H. Nakai, T. Vreven, K. Throssell, J. A. Montgomery, Jr., 
 J. E. Peralta, F. Ogliaro, M. Bearpark, J. J. Heyd, E. Brothers, 
 K. N. Kudin, V. N. Staroverov, T. Keith, R. Kobayashi, J. Normand, 
 K. Raghavachari, A. Rendell, J. C. Burant, S. S. Iyengar, J. Tomasi, 
 M. Cossi, N. Rega, J. M. Millam, M. Klene, J. E. Knox, J. B. Cross, 
 V. Bakken, C. Adamo, J. Jaramillo, R. Gomperts, R. E. Stratmann, 
 O. Yazyev, A. J. Austin, R. Cammi, C. Pomelli, J. W. Ochterski, 
 R. L. Martin, K. Morokuma, V. G. Zakrzewski, G. A. Voth, 
 P. Salvador, J. J. Dannenberg, S. Dapprich, P. V. Parandekar, 
 N. J. Mayhall, A. D. Daniels, O. Farkas, J. B. Foresman, 
 J. V. Ortiz, J. Cioslowski, and D. J. Fox, 
 Gaussian, Inc., Wallingford CT, 2014.
 
 *******************************************
 Gaussian DV:  ES64L-GDVRevI.03+  2-May-2015
                 28-Oct-2015 
 *******************************************
 %chk=benz
 %nproc=2
 Will use up to    2 processors via shared memory.
 ---------------------------------------
 # hf/6-31G gfinput cis(full,nstates=12)
 ---------------------------------------
 1/38=1,172=1/1;
 2/12=2,17=6,18=5,40=1/2;
 3/5=1,6=6,11=9,24=10,25=1,30=1/1,2,3,8;
 4//1;
 5/5=2,38=5/2;
 8/6=1,10=90,108=12/1,4;
 9/41=12,42=3/14;
 6/7=2,8=2,9=2,10=2/1;
 99/5=1,9=1/99;
 ---------------
 Benzene singlet
 ---------------
 Symbolic Z-matrix:
 Charge =  0 Multiplicity = 1
 C                    -0.20699  -0.18218   0.00007 
 C                     1.19167  -0.18235   0.0005 
 C                     1.89106   1.02887  -0.00007 
 C                     1.19173   2.24013  -0.00106 
 C                    -0.20692   2.24031  -0.00148 
 C                    -0.90631   1.02909  -0.00092 
 H                    -0.75075  -1.1239    0.00051 
 H                     1.73529  -1.12415   0.00127 
 H                     2.97848   1.02893   0.00027 
 H                     1.7355    3.18185  -0.0015 
 H                    -0.75054   3.1821   -0.00226 
 H                    -1.99373   1.02902  -0.00125 
 
                          Input orientation:                          
 ---------------------------------------------------------------------
 Center     Atomic      Atomic             Coordinates (Angstroms)
 Number     Number       Type             X           Y           Z
 ---------------------------------------------------------------------
      1          6           0       -0.206985   -0.182180    0.000071
      2          6           0        1.191674   -0.182353    0.000499
      3          6           0        1.891055    1.028868   -0.000066
      4          6           0        1.191735    2.240134   -0.001056
      5          6           0       -0.206924    2.240307   -0.001484
      6          6           0       -0.906306    1.029086   -0.000919
      7          1           0       -0.750746   -1.123896    0.000510
      8          1           0        1.735285   -1.124149    0.001271
      9          1           0        2.978478    1.028934    0.000267
     10          1           0        1.735496    3.181849   -0.001495
     11          1           0       -0.750536    3.182103   -0.002255
     12          1           0       -1.993729    1.029020   -0.001252
 ---------------------------------------------------------------------
                    Distance matrix (angstroms):
                    1          2          3          4          5
     1  C    0.000000
     2  C    1.398659   0.000000
     3  C    2.422480   1.398639   0.000000
     4  C    2.797145   2.422487   1.398648   0.000000
     5  C    2.422487   2.797385   2.422623   1.398659   0.000000
     6  C    1.398648   2.422623   2.797361   2.422480   1.398639
     7  H    1.087430   2.158587   3.407859   3.884576   3.407874
     8  H    2.158639   1.087425   2.158645   3.407910   3.884810
     9  H    3.407928   2.158677   1.087423   2.158578   3.407964
    10  H    3.884576   3.407874   2.158595   1.087430   2.158587
    11  H    3.407910   3.884810   3.407995   2.158639   1.087425
    12  H    2.158578   3.407964   3.884784   3.407928   2.158677
                    6          7          8          9         10
     6  C    0.000000
     7  H    2.158595   0.000000
     8  H    3.407995   2.486032   0.000000
     9  H    3.884784   4.306018   2.486221   0.000000
    10  H    3.407859   4.972006   4.306000   2.485971   0.000000
    11  H    2.158645   4.306000   4.972236   4.306006   2.486032
    12  H    1.087423   2.485971   4.306006   4.972207   4.306018
                   11         12
    11  H    0.000000
    12  H    2.486221   0.000000
 Stoichiometry    C6H6
 Framework group  CI[X(C6H6)]
 Deg. of freedom    15
 Full point group                 CI      NOp   2
 Largest Abelian subgroup         CI      NOp   2
 Largest concise Abelian subgroup CI      NOp   2
                         Standard orientation:                         
 ---------------------------------------------------------------------
 Center     Atomic      Atomic             Coordinates (Angstroms)
 Number     Number       Type             X           Y           Z
 ---------------------------------------------------------------------
      1          6           0       -0.699360   -1.211157    0.000564
      2          6           0        0.699299   -1.211330    0.000991
      3          6           0        1.398680   -0.000109    0.000427
      4          6           0        0.699360    1.211157   -0.000564
      5          6           0       -0.699299    1.211330   -0.000991
      6          6           0       -1.398680    0.000109   -0.000427
      7          1           0       -1.243121   -2.152873    0.001002
      8          1           0        1.242911   -2.153126    0.001763
      9          1           0        2.486104   -0.000043    0.000760
     10          1           0        1.243121    2.152873   -0.001002
     11          1           0       -1.242911    2.153126   -0.001763
     12          1           0       -2.486104    0.000043   -0.000760
 ---------------------------------------------------------------------
 Rotational constants (GHZ):      5.6717105      5.6710222      2.8356832
 Standard basis: 6-31G (6D, 7F)
 AO basis set in the form of general basis input (Overlap normalization):
      1 0
 S   6 1.00       0.000000000000
      0.3047524880D+04  0.1834737132D-02
      0.4573695180D+03  0.1403732281D-01
      0.1039486850D+03  0.6884262226D-01
      0.2921015530D+02  0.2321844432D+00
      0.9286662960D+01  0.4679413484D+00
      0.3163926960D+01  0.3623119853D+00
 SP   3 1.00       0.000000000000
      0.7868272350D+01 -0.1193324198D+00  0.6899906659D-01
      0.1881288540D+01 -0.1608541517D+00  0.3164239610D+00
      0.5442492580D+00  0.1143456438D+01  0.7443082909D+00
 SP   1 1.00       0.000000000000
      0.1687144782D+00  0.1000000000D+01  0.1000000000D+01
 ****
      2 0
 S   6 1.00       0.000000000000
      0.3047524880D+04  0.1834737132D-02
      0.4573695180D+03  0.1403732281D-01
      0.1039486850D+03  0.6884262226D-01
      0.2921015530D+02  0.2321844432D+00
      0.9286662960D+01  0.4679413484D+00
      0.3163926960D+01  0.3623119853D+00
 SP   3 1.00       0.000000000000
      0.7868272350D+01 -0.1193324198D+00  0.6899906659D-01
      0.1881288540D+01 -0.1608541517D+00  0.3164239610D+00
      0.5442492580D+00  0.1143456438D+01  0.7443082909D+00
 SP   1 1.00       0.000000000000
      0.1687144782D+00  0.1000000000D+01  0.1000000000D+01
 ****
      3 0
 S   6 1.00       0.000000000000
      0.3047524880D+04  0.1834737132D-02
      0.4573695180D+03  0.1403732281D-01
      0.1039486850D+03  0.6884262226D-01
      0.2921015530D+02  0.2321844432D+00
      0.9286662960D+01  0.4679413484D+00
      0.3163926960D+01  0.3623119853D+00
 SP   3 1.00       0.000000000000
      0.7868272350D+01 -0.1193324198D+00  0.6899906659D-01
      0.1881288540D+01 -0.1608541517D+00  0.3164239610D+00
      0.5442492580D+00  0.1143456438D+01  0.7443082909D+00
 SP   1 1.00       0.000000000000
      0.1687144782D+00  0.1000000000D+01  0.1000000000D+01
 ****
      4 0
 S   6 1.00       0.000000000000
      0.3047524880D+04  0.1834737132D-02
      0.4573695180D+03  0.1403732281D-01
      0.1039486850D+03  0.6884262226D-01
      0.2921015530D+02  0.2321844432D+00
      0.9286662960D+01  0.4679413484D+00
      0.3163926960D+01  0.3623119853D+00
 SP   3 1.00       0.000000000000
      0.7868272350D+01 -0.1193324198D+00  0.6899906659D-01
      0.1881288540D+01 -0.1608541517D+00  0.3164239610D+00
      0.5442492580D+00  0.1143456438D+01  0.7443082909D+00
 SP   1 1.00       0.000000000000
      0.1687144782D+00  0.1000000000D+01  0.1000000000D+01
 ****
      5 0
 S   6 1.00       0.000000000000
      0.3047524880D+04  0.1834737132D-02
      0.4573695180D+03  0.1403732281D-01
      0.1039486850D+03  0.6884262226D-01
      0.2921015530D+02  0.2321844432D+00
      0.9286662960D+01  0.4679413484D+00
      0.3163926960D+01  0.3623119853D+00
 SP   3 1.00       0.000000000000
      0.7868272350D+01 -0.1193324198D+00  0.6899906659D-01
      0.1881288540D+01 -0.1608541517D+00  0.3164239610D+00
      0.5442492580D+00  0.1143456438D+01  0.7443082909D+00
 SP   1 1.00       0.000000000000
      0.1687144782D+00  0.1000000000D+01  0.1000000000D+01
 ****
      6 0
 S   6 1.00       0.000000000000
      0.3047524880D+04  0.1834737132D-02
      0.4573695180D+03  0.1403732281D-01
      0.1039486850D+03  0.6884262226D-01
      0.2921015530D+02  0.2321844432D+00
      0.9286662960D+01  0.4679413484D+00
      0.3163926960D+01  0.3623119853D+00
 SP   3 1.00       0.000000000000
      0.7868272350D+01 -0.1193324198D+00  0.6899906659D-01
      0.1881288540D+01 -0.1608541517D+00  0.3164239610D+00
      0.5442492580D+00  0.1143456438D+01  0.7443082909D+00
 SP   1 1.00       0.000000000000
      0.1687144782D+00  0.1000000000D+01  0.1000000000D+01
 ****
      7 0
 S   3 1.00       0.000000000000
      0.1873113696D+02  0.3349460434D-01
      0.2825394365D+01  0.2347269535D+00
      0.6401216923D+00  0.8137573261D+00
 S   1 1.00       0.000000000000
      0.1612777588D+00  0.1000000000D+01
 ****
      8 0
 S   3 1.00       0.000000000000
      0.1873113696D+02  0.3349460434D-01
      0.2825394365D+01  0.2347269535D+00
      0.6401216923D+00  0.8137573261D+00
 S   1 1.00       0.000000000000
      0.1612777588D+00  0.1000000000D+01
 ****
      9 0
 S   3 1.00       0.000000000000
      0.1873113696D+02  0.3349460434D-01
      0.2825394365D+01  0.2347269535D+00
      0.6401216923D+00  0.8137573261D+00
 S   1 1.00       0.000000000000
      0.1612777588D+00  0.1000000000D+01
 ****
     10 0
 S   3 1.00       0.000000000000
      0.1873113696D+02  0.3349460434D-01
      0.2825394365D+01  0.2347269535D+00
      0.6401216923D+00  0.8137573261D+00
 S   1 1.00       0.000000000000
      0.1612777588D+00  0.1000000000D+01
 ****
     11 0
 S   3 1.00       0.000000000000
      0.1873113696D+02  0.3349460434D-01
      0.2825394365D+01  0.2347269535D+00
      0.6401216923D+00  0.8137573261D+00
 S   1 1.00       0.000000000000
      0.1612777588D+00  0.1000000000D+01
 ****
     12 0
 S   3 1.00       0.000000000000
      0.1873113696D+02  0.3349460434D-01
      0.2825394365D+01  0.2347269535D+00
      0.6401216923D+00  0.8137573261D+00
 S   1 1.00       0.000000000000
      0.1612777588D+00  0.1000000000D+01
 ****

 There are    33 symmetry adapted cartesian basis functions of AG  symmetry.
 There are    33 symmetry adapted cartesian basis functions of AU  symmetry.
 There are    33 symmetry adapted basis functions of AG  symmetry.
 There are    33 symmetry adapted basis functions of AU  symmetry.
    66 basis functions,   156 primitive gaussians,    66 cartesian basis functions
    21 alpha electrons       21 beta electrons
       nuclear repulsion energy       202.9242874114 Hartrees.
 NAtoms=   12 NActive=   12 NUniq=    6 SFac= 4.00D+00 NAtFMM=   60 NAOKFM=F Big=F
 Integral buffers will be    131072 words long.
 Raffenetti 1 integral format.
 Two-electron integral symmetry is turned on.
 One-electron integrals computed using PRISM.
 NBasis=    66 RedAO= T EigKep=  7.12D-04  NBF=    33    33
 NBsUse=    66 1.00D-06 EigRej= -1.00D+00 NBFU=    33    33
 ExpMin= 1.61D-01 ExpMax= 3.05D+03 ExpMxC= 4.57D+02 IAcc=1 IRadAn=         1 AccDes= 0.00D+00
 Harris functional with IExCor=  205 and IRadAn=       1 diagonalized for initial guess.
 HarFok:  IExCor=  205 AccDes= 0.00D+00 IRadAn=         1 IDoV= 1 UseB2=F ITyADJ=14
 ICtDFT=  3500011 ScaDFX=  1.000000  1.000000  1.000000  1.000000
 FoFCou: FMM=F IPFlag=           0 FMFlag=      100000 FMFlg1=           0
         NFxFlg=           0 DoJE=T BraDBF=F KetDBF=T FulRan=T
         wScrn=  0.000000 ICntrl=       500 IOpCl=  0 I1Cent=   200000004 NGrid=           0
         NMat0=    1 NMatS0=      1 NMatT0=    0 NMatD0=    1 NMtDS0=    0 NMtDT0=    0
 Petite list used in FoFCou.
 Initial guess orbital symmetries:
       Occupied  (AG) (AU) (AU) (AG) (AG) (AU) (AG) (AU) (AU) (AG)
                 (AG) (AG) (AU) (AU) (AU) (AU) (AU) (AG) (AG) (AG)
                 (AG)
       Virtual   (AU) (AU) (AG) (AG) (AU) (AU) (AG) (AG) (AU) (AG)
                 (AG) (AU) (AU) (AU) (AU) (AU) (AG) (AG) (AG) (AG)
                 (AG) (AG) (AU) (AU) (AG) (AU) (AU) (AG) (AU) (AG)
                 (AG) (AU) (AU) (AG) (AG) (AU) (AU) (AG) (AG) (AU)
                 (AU) (AU) (AG) (AG) (AU)
 The electronic state of the initial guess is 1-AG.
 Keep R1 ints in memory in symmetry-blocked form, NReq=3674637.
 Requested convergence on RMS density matrix=1.00D-08 within 128 cycles.
 Requested convergence on MAX density matrix=1.00D-06.
 Requested convergence on             energy=1.00D-06.
 No special actions if energy rises.
 SCF Done:  E(RHF) =  -230.622951990     A.U. after    9 cycles
            NFock=  9  Conv=0.21D-08     -V/T= 2.0001
 Range of M.O.s used for correlation:     1    66
 NBasis=    66 NAE=    21 NBE=    21 NFC=     0 NFV=     0
 NROrb=     66 NOA=    21 NOB=    21 NVA=    45 NVB=    45

 **** Warning!!: The largest alpha MO coefficient is  0.11476834D+02

 Semi-Direct transformation.
 ModeAB=           4 MOrb=            21 LenV=      33349505
 LASXX=      1321530 LTotXX=     1321530 LenRXX=     2725296
 LTotAB=     1403766 MaxLAS=     1642410 LenRXY=           0
 NonZer=     4046826 LenScr=     6824448 LnRSAI=     1642410
 LnScr1=     3143680 LExtra=           0 Total=     14335834
 MaxDsk=          -1 SrtSym=           T ITran=            3
 JobTyp=0 Pass  1:  I=   1 to  21.
 (rs|ai) integrals will be sorted in core.
 Spin components of T(2) and E(2):
     alpha-alpha T2 =       0.2962620700D-01 E2=     -0.6607351030D-01
     alpha-beta  T2 =       0.1654177159D+00 E2=     -0.3926845966D+00
     beta-beta   T2 =       0.2962620700D-01 E2=     -0.6607351030D-01
 ANorm=    0.1106648151D+01
 E2 =    -0.5248316172D+00 EUMP2 =    -0.23114778360747D+03
 Orbital symmetries:
       Occupied  (AG) (AU) (AU) (AG) (AG) (AU) (AG) (AU) (AU) (AG)
                 (AG) (AG) (AU) (AU) (AU) (AU) (AU) (AG) (AG) (AG)
                 (AG)
       Virtual   (AU) (AU) (AG) (AU) (AU) (AG) (AG) (AU) (AG) (AG)
                 (AG) (AU) (AU) (AU) (AU) (AG) (AU) (AG) (AG) (AG)
                 (AG) (AG) (AG) (AU) (AU) (AU) (AU) (AG) (AU) (AG)
                 (AG) (AU) (AU) (AG) (AU) (AU) (AG) (AG) (AG) (AU)
                 (AU) (AU) (AG) (AG) (AU)
    48 initial guesses have been made.
 Convergence on wavefunction:    0.001000000000000
 Iteration     1 Dimension    48 NMult     0 NNew     48
 New state      3 was old state      5
 New state      4 was old state      6
 New state      5 was old state      3
 New state      6 was old state      4
 New state      7 was old state      8
 New state      8 was old state      7
 New state     11 was old state     15
 New state     12 was old state     16
 Iteration     2 Dimension    96 NMult    48 NNew     48
 New state      3 was old state      5
 New state      4 was old state      6
 New state      5 was old state     10
 New state      6 was old state      3
 New state      7 was old state      4
 New state      8 was old state      9
 New state      9 was old state      8
 New state     10 was old state      7
 New state     12 was old state     16
 Iteration     3 Dimension   108 NMult    96 NNew     12
 Iteration     4 Dimension   119 NMult   108 NNew     11
 Iteration     5 Dimension   125 NMult   119 NNew      6
 ***********************************************************************
 Excited states from <AA,BB:AA,BB> singles matrix:
 ***********************************************************************
 
 Ground to excited state transition densities written to RWF  633
 Ground to excited state transition electric dipole moments (Au):
       state          X           Y           Z        Dip. S.      Osc.
         1        -0.0002      0.0001      0.0000      0.0000      0.0000
         2         0.0001      0.0000      0.0000      0.0000      0.0000
         3         1.4916      1.8018     -0.0007      5.4715      1.1548
         4         1.8019     -1.4917      0.0015      5.4722      1.1550
         5         0.0000      0.0000      0.0000      0.0000      0.0000
         6         0.0000      0.0000      0.0000      0.0000      0.0000
         7         0.0000      0.0000      0.0000      0.0000      0.0000
         8         0.0000      0.0000      0.0006      0.0000      0.0000
         9         0.0000      0.0000      0.0000      0.0000      0.0000
        10        -0.0001      0.0002      0.2671      0.0714      0.0171
        11         0.0000      0.0000     -0.0575      0.0033      0.0008
        12         0.0000      0.0000      0.0000      0.0000      0.0000
 Ground to excited state transition velocity dipole moments (Au):
       state          X           Y           Z        Dip. S.      Osc.
         1         0.0000      0.0000      0.0000      0.0000      0.0000
         2         0.0000      0.0000      0.0000      0.0000      0.0000
         3        -0.1269     -0.1527      0.0001      0.0394      0.0831
         4        -0.1527      0.1269     -0.0001      0.0394      0.0831
         5         0.0000      0.0000     -0.0001      0.0000      0.0000
         6         0.0000      0.0000      0.0000      0.0000      0.0000
         7         0.0000      0.0000      0.0000      0.0000      0.0000
         8         0.0000      0.0000     -0.0002      0.0000      0.0000
         9         0.0000      0.0000      0.0000      0.0000      0.0000
        10         0.0000     -0.0001     -0.1122      0.0126      0.0233
        11         0.0000      0.0000     -0.0363      0.0013      0.0023
        12         0.0000      0.0000      0.0000      0.0000      0.0000
 Ground to excited state transition magnetic dipole moments (Au):
       state          X           Y           Z
         1         0.0000      0.0000      0.0000
         2         0.0000      0.0000      0.0000
         3         0.0000      0.0000      0.0000
         4         0.0000      0.0000      0.0000
         5         0.0000      0.0000      0.0000
         6        -0.4597      0.2435     -0.0003
         7        -0.2435     -0.4597      0.0002
         8         0.0000      0.0000      0.0000
         9         0.0000      0.0000      0.0000
        10         0.0000      0.0000      0.0000
        11         0.0000      0.0000      0.0000
        12         0.0000      0.0000     -0.0001
 Ground to excited state transition velocity quadrupole moments (Au):
       state          XX          YY          ZZ          XY          XZ          YZ
         1         0.0000      0.0000      0.0000      0.0000      0.0000      0.0000
         2         0.0000      0.0000      0.0000      0.0000      0.0000      0.0000
         3         0.0000      0.0000      0.0000      0.0000      0.0000      0.0000
         4         0.0000      0.0000      0.0000      0.0000      0.0000      0.0000
         5         0.0000      0.0000      0.0000      0.0000      0.0000      0.0000
         6         0.0001     -0.0002      0.0002      0.0000     -0.0947     -0.1783
         7        -0.0001     -0.0001      0.0002      0.0001      0.1783     -0.0947
         8         0.0000      0.0000      0.0000      0.0000      0.0000      0.0000
         9         0.0000      0.0000      0.0000      0.0000      0.0000      0.0000
        10         0.0000      0.0000      0.0000      0.0000      0.0000      0.0000
        11         0.0000      0.0000      0.0000      0.0000      0.0000      0.0000
        12        -0.5680      0.5681      0.0000     -0.7242      0.0003     -0.0006
 <0|del|b> * <b|rxdel|0> + <0|del|b> * <b|delr+rdel|0>
 Rotatory Strengths (R) in cgs (10**-40 erg-esu-cm/Gauss)
       state          XX          YY          ZZ    R(velocity)    E-M Angle
         1         0.0000      0.0000      0.0000      0.0000       90.00
         2         0.0000      0.0000      0.0000      0.0000       90.00
         3         0.0000      0.0000      0.0000      0.0000       90.00
         4         0.0000      0.0000      0.0000      0.0000       90.00
         5         0.0000      0.0000      0.0000      0.0000       90.00
         6         0.0000      0.0000      0.0000      0.0000       90.00
         7         0.0000      0.0000      0.0000      0.0000       90.00
         8         0.0000      0.0000      0.0000      0.0000       90.00
         9         0.0000      0.0000      0.0000      0.0000       90.00
        10         0.0000      0.0000      0.0000      0.0000       90.00
        11         0.0000      0.0000      0.0000      0.0000       90.00
        12         0.0000      0.0000      0.0000      0.0000       90.00
 1/2[<0|r|b>*<b|rxdel|0> + (<0|rxdel|b>*<b|r|0>)*]
 Rotatory Strengths (R) in cgs (10**-40 erg-esu-cm/Gauss)
       state          XX          YY          ZZ     R(length)
         1         0.0000      0.0000      0.0000      0.0000
         2         0.0000      0.0000      0.0000      0.0000
         3         0.0000      0.0000      0.0000      0.0000
         4         0.0000      0.0000      0.0000      0.0000
         5         0.0000      0.0000      0.0000      0.0000
         6         0.0000      0.0000      0.0000      0.0000
         7         0.0000      0.0000      0.0000      0.0000
         8         0.0000      0.0000      0.0000      0.0000
         9         0.0000      0.0000      0.0000      0.0000
        10         0.0000      0.0000      0.0000      0.0000
        11         0.0000      0.0000      0.0000      0.0000
        12         0.0000      0.0000      0.0000      0.0000
  1/2[<0|del|b>*<b|r|0> + (<0|r|b>*<b|del|0>)*] (Au)
       state          X           Y           Z        Dip. S.   Osc.(frdel)
         1         0.0000      0.0000      0.0000      0.0000      0.0000
         2         0.0000      0.0000      0.0000      0.0000      0.0000
         3        -0.1893     -0.2752      0.0000      0.4645      0.3097
         4        -0.2752     -0.1893      0.0000      0.4646      0.3097
         5         0.0000      0.0000      0.0000      0.0000      0.0000
         6         0.0000      0.0000      0.0000      0.0000      0.0000
         7         0.0000      0.0000      0.0000      0.0000      0.0000
         8         0.0000      0.0000      0.0000      0.0000      0.0000
         9         0.0000      0.0000      0.0000      0.0000      0.0000
        10         0.0000      0.0000     -0.0300      0.0300      0.0200
        11         0.0000      0.0000      0.0021     -0.0021     -0.0014
        12         0.0000      0.0000      0.0000      0.0000      0.0000

 Excitation energies and oscillator strengths:
 
 Excited State   1:      Singlet-AU     6.3982 eV  193.78 nm  f=0.0000  <S**2>=0.000
      20 -> 22        -0.17915
      20 -> 23         0.46613
      21 -> 22         0.46624
      21 -> 23         0.17916
 This state for optimization and/or second-order correction.
 Total Energy, E(CIS) =  -230.387821263    
 Copying the excited state density for this state as the 1-particle RhoCI density.
 
 Excited State   2:      Singlet-AU     6.6106 eV  187.55 nm  f=0.0000  <S**2>=0.000
      20 -> 22        -0.45724
      20 -> 23        -0.17570
      21 -> 22        -0.17575
      21 -> 23         0.45730
 
 Excited State   3:      Singlet-AU     8.6148 eV  143.92 nm  f=1.1548  <S**2>=0.000
      20 -> 22         0.45544
      20 -> 23         0.16264
      21 -> 22        -0.16259
      21 -> 23         0.45539
 
 Excited State   4:      Singlet-AU     8.6149 eV  143.92 nm  f=1.1550  <S**2>=0.000
      20 -> 22        -0.16262
      20 -> 23         0.45547
      21 -> 22        -0.45536
      21 -> 23        -0.16260
 
 Excited State   5:      Singlet-AU     9.4404 eV  131.33 nm  f=0.0000  <S**2>=0.000
      14 -> 30        -0.16621
      18 -> 23        -0.46674
      19 -> 22         0.46770
 
 Excited State   6:      Singlet-AG     9.5592 eV  129.70 nm  f=0.0000  <S**2>=0.000
      17 -> 26         0.12980
      21 -> 24         0.67900
 
 Excited State   7:      Singlet-AG     9.5597 eV  129.69 nm  f=0.0000  <S**2>=0.000
      17 -> 25         0.12981
      20 -> 24         0.67900
 
 Excited State   8:      Singlet-AU     9.7133 eV  127.64 nm  f=0.0000  <S**2>=0.000
      16 -> 30         0.13232
      18 -> 22        -0.45383
      18 -> 23        -0.15948
      19 -> 22        -0.15954
      19 -> 23         0.45588
 
 Excited State   9:      Singlet-AU     9.7133 eV  127.64 nm  f=0.0000  <S**2>=0.000
      15 -> 30        -0.13230
      18 -> 22        -0.15967
      18 -> 23         0.45528
      19 -> 22         0.45444
      19 -> 23         0.15936
 
 Excited State  10:      Singlet-AU     9.7900 eV  126.64 nm  f=0.0171  <S**2>=0.000
      13 -> 30        -0.10901
      18 -> 22         0.47492
      19 -> 23         0.47305
 
 Excited State  11:      Singlet-AU    10.4445 eV  118.71 nm  f=0.0008  <S**2>=0.000
      17 -> 24        -0.26408
      18 -> 22        -0.10402
      19 -> 23        -0.10399
      20 -> 25        -0.42124
      20 -> 26        -0.15356
      21 -> 25         0.15368
      21 -> 26        -0.42144
 
 Excited State  12:      Singlet-AG    11.0707 eV  111.99 nm  f=0.0000  <S**2>=0.000
      17 -> 22         0.64207
      20 -> 30        -0.21112
      21 -> 30        -0.10895
 SavETr:  write IOETrn=   770 NScale= 10 NData=  16 NLR=1 NState=   12 LETran=     226.

 **********************************************************************

            Population analysis using the SCF density.

 **********************************************************************

 Orbital symmetries:
       Occupied  (AG) (AU) (AU) (AG) (AG) (AU) (AG) (AU) (AU) (AG)
                 (AG) (AG) (AU) (AU) (AU) (AU) (AU) (AG) (AG) (AG)
                 (AG)
       Virtual   (AU) (AU) (AG) (AU) (AU) (AG) (AG) (AU) (AG) (AG)
                 (AG) (AU) (AU) (AU) (AU) (AG) (AU) (AG) (AG) (AG)
                 (AG) (AG) (AG) (AU) (AU) (AU) (AU) (AG) (AU) (AG)
                 (AG) (AU) (AU) (AG) (AU) (AU) (AG) (AG) (AG) (AU)
                 (AU) (AU) (AG) (AG) (AU)
 The electronic state is 1-AG.
 Alpha  occ. eigenvalues --  -11.24026 -11.23973 -11.23973 -11.23856 -11.23856
 Alpha  occ. eigenvalues --  -11.23800  -1.14912  -1.01251  -1.01249  -0.81996
 Alpha  occ. eigenvalues --   -0.81995  -0.70681  -0.63725  -0.61489  -0.58439
 Alpha  occ. eigenvalues --   -0.58436  -0.49746  -0.48653  -0.48651  -0.33259
 Alpha  occ. eigenvalues --   -0.33257
 Alpha virt. eigenvalues --    0.14508   0.14508   0.23202   0.28912   0.28912
 Alpha virt. eigenvalues --    0.32874   0.32875   0.33392   0.35957   0.46864
 Alpha virt. eigenvalues --    0.46866   0.49455   0.49455   0.68320   0.75485
 Alpha virt. eigenvalues --    0.76873   0.76934   0.78220   0.83625   0.84534
 Alpha virt. eigenvalues --    0.84535   0.87264   0.87267   0.89679   0.89680
 Alpha virt. eigenvalues --    0.91528   0.91528   0.99052   1.13204   1.13264
 Alpha virt. eigenvalues --    1.13265   1.16262   1.16264   1.24161   1.26956
 Alpha virt. eigenvalues --    1.26960   1.27023   1.35812   1.35813   1.43463
 Alpha virt. eigenvalues --    1.43464   1.47382   1.72280   1.72285   2.16286
          Condensed to atoms (all electrons):
               1          2          3          4          5          6
     1  C    4.983452   0.514623  -0.056228  -0.030926  -0.056225   0.514621
     2  C    0.514623   4.983396   0.514610  -0.056225  -0.030923  -0.056199
     3  C   -0.056228   0.514610   4.983408   0.514621  -0.056199  -0.030923
     4  C   -0.030926  -0.056225   0.514621   4.983452   0.514623  -0.056228
     5  C   -0.056225  -0.030923  -0.056199   0.514623   4.983396   0.514610
     6  C    0.514621  -0.056199  -0.030923  -0.056228   0.514610   4.983408
     7  H    0.374773  -0.024406   0.002314   0.000131   0.002314  -0.024406
     8  H   -0.024397   0.374762  -0.024394   0.002313   0.000131   0.002312
     9  H    0.002313  -0.024390   0.374764  -0.024404   0.002312   0.000131
    10  H    0.000131   0.002314  -0.024406   0.374773  -0.024406   0.002314
    11  H    0.002313   0.000131   0.002312  -0.024397   0.374762  -0.024394
    12  H   -0.024404   0.002312   0.000131   0.002313  -0.024390   0.374764
               7          8          9         10         11         12
     1  C    0.374773  -0.024397   0.002313   0.000131   0.002313  -0.024404
     2  C   -0.024406   0.374762  -0.024390   0.002314   0.000131   0.002312
     3  C    0.002314  -0.024394   0.374764  -0.024406   0.002312   0.000131
     4  C    0.000131   0.002313  -0.024404   0.374773  -0.024397   0.002313
     5  C    0.002314   0.000131   0.002312  -0.024406   0.374762  -0.024390
     6  C   -0.024406   0.002312   0.000131   0.002314  -0.024394   0.374764
     7  H    0.470093  -0.000305  -0.000103   0.000005  -0.000103  -0.000305
     8  H   -0.000305   0.470051  -0.000303  -0.000103   0.000005  -0.000103
     9  H   -0.000103  -0.000303   0.470055  -0.000305  -0.000103   0.000005
    10  H    0.000005  -0.000103  -0.000305   0.470093  -0.000305  -0.000103
    11  H   -0.000103   0.000005  -0.000103  -0.000305   0.470051  -0.000303
    12  H   -0.000305  -0.000103   0.000005  -0.000103  -0.000303   0.470055
 Mulliken charges:
               1
     1  C   -0.200044
     2  C   -0.200004
     3  C   -0.200009
     4  C   -0.200044
     5  C   -0.200004
     6  C   -0.200009
     7  H    0.199998
     8  H    0.200031
     9  H    0.200028
    10  H    0.199998
    11  H    0.200031
    12  H    0.200028
 Sum of Mulliken charges =   0.00000
 Mulliken charges with hydrogens summed into heavy atoms:
               1
     1  C   -0.000047
     2  C    0.000028
     3  C    0.000019
     4  C   -0.000047
     5  C    0.000028
     6  C    0.000019
 Electronic spatial extent (au):  <R**2>=            461.1285
 Charge=              0.0000 electrons
 Dipole moment (field-independent basis, Debye):
    X=              0.0000    Y=              0.0000    Z=              0.0000  Tot=              0.0000
 Quadrupole moment (field-independent basis, Debye-Ang):
   XX=            -31.7056   YY=            -31.7061   ZZ=            -40.4426
   XY=             -0.0004   XZ=              0.0027   YZ=             -0.0056
 Traceless Quadrupole moment (field-independent basis, Debye-Ang):
   XX=              2.9125   YY=              2.9120   ZZ=             -5.8245
   XY=             -0.0004   XZ=              0.0027   YZ=             -0.0056
 Octapole moment (field-independent basis, Debye-Ang**2):
  XXX=              0.0000  YYY=              0.0000  ZZZ=              0.0000  XYY=              0.0000
  XXY=              0.0000  XXZ=              0.0000  XZZ=              0.0000  YZZ=              0.0000
  YYZ=              0.0000  XYZ=              0.0000
 Hexadecapole moment (field-independent basis, Debye-Ang**3):
 XXXX=           -267.6677 YYYY=           -267.6600 ZZZZ=            -43.9158 XXXY=              0.0071
 XXXZ=             -0.0240 YYYX=              0.0000 YYYZ=              0.0505 ZZZX=             -0.0443
 ZZZY=              0.0932 XXYY=            -89.2230 XXZZ=            -63.0164 YYZZ=            -63.0142
 XXYZ=              0.0168 YYXZ=             -0.0080 ZZXY=              0.0019
 N-N= 2.029242874114D+02 E-N=-9.426736212419D+02  KE= 2.306035661535D+02
 Symmetry AG   KE= 1.162830346603D+02
 Symmetry AU   KE= 1.143205314932D+02
 Unable to Open any file for archive entry.
 1\1\GINC-MEDUSA\SP\RCIS-Full\6-31G\C6H6\PLESTRAN\28-Oct-2015\0\\# hf/6
 -31G gfinput cis(full,nstates=12)\\Benzene singlet\\0,1\C,0,-0.2069851
 582,-0.182179772,0.0000714421\C,0,1.1916738876,-0.1823529436,0.0004985
 861\C,0,1.8910553573,1.0288676731,-0.0000660445\C,0,1.1917349868,2.240
 1336715,-0.0010564977\C,0,-0.206924055,2.2403068493,-0.0014838269\C,0,
 -0.9063055337,1.0290862369,-0.0009191682\H,0,-0.750746176,-1.123895585
 9,0.0005098114\H,0,1.7352854346,-1.124149144,0.0012705069\H,0,2.978478
 4245,1.0289339946,0.0002669247\H,0,1.7354959994,3.1818494841,-0.001495
 4845\H,0,-0.7505356043,3.1821030485,-0.0022553738\H,0,-1.9937286031,1.
 0290199075,-0.0012518757\\Version=ES64L-GDVRevI.03+\State=1-AG\HF=-230
 .622952\MP2=-231.1477836\EFC=0.\RMSD=2.142e-09\PG=CI [X(C6H6)]\\@
 The archive entry for this job was punched.


 WHEN ALL ELSE FAILS, LOOK AT THE SCHRODINGER EQUATION.
     -- RUSSELL T. PACK, APRIL 1978
 Job cpu time:       0 days  0 hours  0 minutes  3.2 seconds.
 Elapsed time:       0 days  0 hours  0 minutes  1.5 seconds.
 File lengths (MBytes):  RWF=    125 Int=      0 D2E=      0 Chk=      4 Scr=      1
 Normal termination of Gaussian DV at Wed Oct 28 09:59:40 2015.
 Initial command:
 /home/gauss/gdvi03p/gdv/l1.exe "/home/GauScr/Gau-28423.inp" -scrdir="/home/GauScr/"
 Entering Link 1 = /home/gauss/gdvi03p/gdv/l1.exe PID=     28463.
  
 Copyright (c) 1988,1990,1992,1993,1995,1998,2003,2009,2015,
            Gaussian, Inc.  All Rights Reserved.
  
 This is the private, development version of
 the Gaussian(R) DV system of programs. It is based on
 the Gaussian(R) 09 system (copyright 2009, Gaussian, Inc.),
 the Gaussian(R) 03 system (copyright 2003, Gaussian, Inc.),
 the Gaussian(R) 98 system (copyright 1998, Gaussian, Inc.),
 the Gaussian(R) 94 system (copyright 1995, Gaussian, Inc.),
 the Gaussian 92(TM) system (copyright 1992, Gaussian, Inc.),
 the Gaussian 90(TM) system (copyright 1990, Gaussian, Inc.),
 the Gaussian 88(TM) system (copyright 1988, Gaussian, Inc.),
 the Gaussian 86(TM) system (copyright 1986, Carnegie Mellon
 University), and the Gaussian 82(TM) system (copyright 1983,
 Carnegie Mellon University). Gaussian is a federally registered
 trademark of Gaussian, Inc.
  
 This software contains proprietary and confidential information,
 including trade secrets, belonging to Gaussian, Inc.
  
 This software is provided under written license and may be
 used, copied, transmitted, or stored only in accord with that
 written license.
  
 The following legend is applicable only to US Government
 contracts under FAR:
  
                    RESTRICTED RIGHTS LEGEND
  
 Use, reproduction and disclosure by the US Government is
 subject to restrictions as set forth in subparagraphs (a)
 and (c) of the Commercial Computer Software - Restricted
 Rights clause in FAR 52.227-19.
  
 Gaussian, Inc.
 340 Quinnipiac St., Bldg. 40, Wallingford CT 06492
  
  
 ---------------------------------------------------------------
 Warning -- This program may not be used in any manner that
 competes with the business of Gaussian, Inc. or will provide
 assistance to any competitor of Gaussian, Inc.  The licensee
 of this program is prohibited from giving any competitor of
 Gaussian, Inc. access to this program.  By using this program,
 the user acknowledges that Gaussian, Inc. is engaged in the
 business of creating and licensing software in the field of
 computational chemistry and represents and warrants to the
 licensee that it is not a competitor of Gaussian, Inc. and that
 it will not use this program in any manner prohibited above.
 ---------------------------------------------------------------
  

 Cite this work as:
 Gaussian Development Version, Revision I.03+,
 M. J. Frisch, G. W. Trucks, H. B. Schlegel, G. E. Scuseria, 
 M. A. Robb, J. R. Cheeseman, G. Scalmani, V. Barone, B. Mennucci, 
 G. A. Petersson, H. Nakatsuji, M. Caricato, X. Li, H. P. Hratchian, 
 J. Bloino, B. G. Janesko, A. F. Izmaylov, A. Marenich, F. Lipparini, 
 G. Zheng, J. L. Sonnenberg, W. Liang, M. Hada, M. Ehara, K. Toyota, 
 R. Fukuda, J. Hasegawa, M. Ishida, T. Nakajima, Y. Honda, O. Kitao, 
 H. Nakai, T. Vreven, K. Throssell, J. A. Montgomery, Jr., 
 J. E. Peralta, F. Ogliaro, M. Bearpark, J. J. Heyd, E. Brothers, 
 K. N. Kudin, V. N. Staroverov, T. Keith, R. Kobayashi, J. Normand, 
 K. Raghavachari, A. Rendell, J. C. Burant, S. S. Iyengar, J. Tomasi, 
 M. Cossi, N. Rega, J. M. Millam, M. Klene, J. E. Knox, J. B. Cross, 
 V. Bakken, C. Adamo, J. Jaramillo, R. Gomperts, R. E. Stratmann, 
 O. Yazyev, A. J. Austin, R. Cammi, C. Pomelli, J. W. Ochterski, 
 R. L. Martin, K. Morokuma, V. G. Zakrzewski, G. A. Voth, 
 P. Salvador, J. J. Dannenberg, S. Dapprich, P. V. Parandekar, 
 N. J. Mayhall, A. D. Daniels, O. Farkas, J. B. Foresman, 
 J. V. Ortiz, J. Cioslowski, and D. J. Fox, 
 Gaussian, Inc., Wallingford CT, 2014.
 
 *******************************************
 Gaussian DV:  ES64L-GDVRevI.03+  2-May-2015
                 28-Oct-2015 
 *******************************************
 %chk=benz
 %nproc=2
 Will use up to    2 processors via shared memory.
 -------------------------------------------------------------
 # hf/6-31G geom=check guess=read cis(full,nstates=12,triplet)
 -------------------------------------------------------------
 1/29=2,38=1,172=1/1;
 2/12=2,40=1/2;
 3/5=1,6=6,11=9,14=-4,25=1,30=1,116=-2/1,2,3,8;
 4/5=1/1;
 5/5=2,38=6/2;
 8/6=1,10=90,108=12/1,4;
 9/41=12,42=3,48=3/14;
 6/7=2,8=2,9=2,10=2/1;
 99/5=1,9=1/99;
 ---------------
 Benzene triplet
 ---------------
 Structure from the checkpoint file:  "benz.chk"
 Charge =  0 Multiplicity = 1
 Z-Matrix found in chk file.
 C,0,-0.2069851582,-0.182179772,0.0000714421
 C,0,1.1916738876,-0.1823529436,0.0004985861
 C,0,1.8910553573,1.0288676731,-0.0000660445
 C,0,1.1917349868,2.2401336715,-0.0010564977
 C,0,-0.206924055,2.2403068493,-0.0014838269
 C,0,-0.9063055337,1.0290862369,-0.0009191682
 H,0,-0.750746176,-1.1238955859,0.0005098114
 H,0,1.7352854346,-1.124149144,0.0012705069
 H,0,2.9784784245,1.0289339946,0.0002669247
 H,0,1.7354959994,3.1818494841,-0.0014954845
 H,0,-0.7505356043,3.1821030485,-0.0022553738
 H,0,-1.9937286031,1.0290199075,-0.0012518757
 Recover connectivity data from disk.
                          Input orientation:                          
 ---------------------------------------------------------------------
 Center     Atomic      Atomic             Coordinates (Angstroms)
 Number     Number       Type             X           Y           Z
 ---------------------------------------------------------------------
      1          6           0       -0.206985   -0.182180    0.000071
      2          6           0        1.191674   -0.182353    0.000499
      3          6           0        1.891055    1.028868   -0.000066
      4          6           0        1.191735    2.240134   -0.001057
      5          6           0       -0.206924    2.240307   -0.001484
      6          6           0       -0.906306    1.029086   -0.000919
      7          1           0       -0.750746   -1.123896    0.000510
      8          1           0        1.735285   -1.124149    0.001271
      9          1           0        2.978478    1.028934    0.000267
     10          1           0        1.735496    3.181849   -0.001495
     11          1           0       -0.750536    3.182103   -0.002256
     12          1           0       -1.993729    1.029020   -0.001252
 ---------------------------------------------------------------------
                    Distance matrix (angstroms):
                    1          2          3          4          5
     1  C    0.000000
     2  C    1.398659   0.000000
     3  C    2.422480   1.398639   0.000000
     4  C    2.797145   2.422487   1.398648   0.000000
     5  C    2.422487   2.797385   2.422623   1.398659   0.000000
     6  C    1.398648   2.422623   2.797361   2.422480   1.398639
     7  H    1.087430   2.158587   3.407859   3.884576   3.407874
     8  H    2.158639   1.087425   2.158645   3.407910   3.884810
     9  H    3.407928   2.158677   1.087423   2.158578   3.407964
    10  H    3.884576   3.407874   2.158595   1.087430   2.158587
    11  H    3.407910   3.884810   3.407995   2.158639   1.087425
    12  H    2.158578   3.407964   3.884784   3.407928   2.158677
                    6          7          8          9         10
     6  C    0.000000
     7  H    2.158595   0.000000
     8  H    3.407995   2.486032   0.000000
     9  H    3.884784   4.306018   2.486221   0.000000
    10  H    3.407859   4.972006   4.306000   2.485971   0.000000
    11  H    2.158645   4.306000   4.972236   4.306006   2.486032
    12  H    1.087423   2.485971   4.306006   4.972207   4.306018
                   11         12
    11  H    0.000000
    12  H    2.486221   0.000000
 Stoichiometry    C6H6
 Framework group  CI[X(C6H6)]
 Deg. of freedom    15
 Full point group                 CI      NOp   2
 Largest Abelian subgroup         CI      NOp   2
 Largest concise Abelian subgroup CI      NOp   2
                         Standard orientation:                         
 ---------------------------------------------------------------------
 Center     Atomic      Atomic             Coordinates (Angstroms)
 Number     Number       Type             X           Y           Z
 ---------------------------------------------------------------------
      1          6           0       -0.699360   -1.211157    0.000564
      2          6           0        0.699299   -1.211330    0.000991
      3          6           0        1.398680   -0.000109    0.000427
      4          6           0        0.699360    1.211157   -0.000564
      5          6           0       -0.699299    1.211330   -0.000991
      6          6           0       -1.398680    0.000109   -0.000427
      7          1           0       -1.243121   -2.152873    0.001002
      8          1           0        1.242911   -2.153126    0.001763
      9          1           0        2.486104   -0.000043    0.000760
     10          1           0        1.243121    2.152873   -0.001002
     11          1           0       -1.242911    2.153126   -0.001763
     12          1           0       -2.486104    0.000043   -0.000760
 ---------------------------------------------------------------------
 Rotational constants (GHZ):      5.6717105      5.6710222      2.8356832
 Standard basis: 6-31G (6D, 7F)
 There are    33 symmetry adapted cartesian basis functions of AG  symmetry.
 There are    33 symmetry adapted cartesian basis functions of AU  symmetry.
 There are    33 symmetry adapted basis functions of AG  symmetry.
 There are    33 symmetry adapted basis functions of AU  symmetry.
    66 basis functions,   156 primitive gaussians,    66 cartesian basis functions
    21 alpha electrons       21 beta electrons
       nuclear repulsion energy       202.9242874114 Hartrees.
 NAtoms=   12 NActive=   12 NUniq=    6 SFac= 4.00D+00 NAtFMM=   60 NAOKFM=F Big=F
 Integral buffers will be    131072 words long.
 Raffenetti 1 integral format.
 Two-electron integral symmetry is turned on.
 One-electron integrals computed using PRISM.
 NBasis=    66 RedAO= T EigKep=  7.12D-04  NBF=    33    33
 NBsUse=    66 1.00D-06 EigRej= -1.00D+00 NBFU=    33    33
 Initial guess from the checkpoint file:  "benz.chk"
 B after Tr=     0.000000    0.000000    0.000000
         Rot=    1.000000    0.000000    0.000000    0.000000 Ang=   0.00 deg.
 Initial guess orbital symmetries:
       Occupied  (AG) (AU) (AU) (AG) (AG) (AU) (AG) (AU) (AU) (AG)
                 (AG) (AG) (AU) (AU) (AU) (AU) (AU) (AG) (AG) (AG)
                 (AG)
       Virtual   (AU) (AU) (AG) (AU) (AU) (AG) (AG) (AU) (AG) (AG)
                 (AG) (AU) (AU) (AU) (AU) (AG) (AU) (AG) (AG) (AG)
                 (AG) (AG) (AG) (AU) (AU) (AU) (AU) (AG) (AU) (AG)
                 (AG) (AU) (AU) (AG) (AU) (AU) (AG) (AG) (AG) (AU)
                 (AU) (AU) (AG) (AG) (AU)
 Keep R1 ints in memory in symmetry-blocked form, NReq=3674637.
 Requested convergence on RMS density matrix=1.00D-08 within 128 cycles.
 Requested convergence on MAX density matrix=1.00D-06.
 Requested convergence on             energy=1.00D-06.
 No special actions if energy rises.
 SCF Done:  E(RHF) =  -230.622951990     A.U. after    1 cycles
            NFock=  1  Conv=0.34D-09     -V/T= 2.0001
 Range of M.O.s used for correlation:     1    66
 NBasis=    66 NAE=    21 NBE=    21 NFC=     0 NFV=     0
 NROrb=     66 NOA=    21 NOB=    21 NVA=    45 NVB=    45

 **** Warning!!: The largest alpha MO coefficient is  0.11476834D+02

 Semi-Direct transformation.
 ModeAB=           4 MOrb=            21 LenV=      33349505
 LASXX=      1321530 LTotXX=     1321530 LenRXX=     2725296
 LTotAB=     1403766 MaxLAS=     1642410 LenRXY=           0
 NonZer=     4046826 LenScr=     6824448 LnRSAI=     1642410
 LnScr1=     3143680 LExtra=           0 Total=     14335834
 MaxDsk=          -1 SrtSym=           T ITran=            3
 JobTyp=0 Pass  1:  I=   1 to  21.
 (rs|ai) integrals will be sorted in core.
 Spin components of T(2) and E(2):
     alpha-alpha T2 =       0.2962620695D-01 E2=     -0.6607351033D-01
     alpha-beta  T2 =       0.1654177156D+00 E2=     -0.3926845967D+00
     beta-beta   T2 =       0.2962620695D-01 E2=     -0.6607351033D-01
 ANorm=    0.1106648151D+01
 E2 =    -0.5248316173D+00 EUMP2 =    -0.23114778360758D+03
 Orbital symmetries:
       Occupied  (AG) (AU) (AU) (AG) (AG) (AU) (AG) (AU) (AU) (AG)
                 (AG) (AG) (AU) (AU) (AU) (AU) (AU) (AG) (AG) (AG)
                 (AG)
       Virtual   (AU) (AU) (AG) (AU) (AU) (AG) (AG) (AU) (AG) (AG)
                 (AG) (AU) (AU) (AU) (AU) (AG) (AU) (AG) (AG) (AG)
                 (AG) (AG) (AG) (AU) (AU) (AU) (AU) (AG) (AU) (AG)
                 (AG) (AU) (AU) (AG) (AU) (AU) (AG) (AG) (AG) (AU)
                 (AU) (AU) (AG) (AG) (AU)
    48 initial guesses have been made.
 Convergence on wavefunction:    0.001000000000000
 Iteration     1 Dimension    48 NMult     0 NNew     48
 New state      1 was old state      2
 New state      2 was old state      1
 New state      5 was old state     11
 New state      6 was old state     12
 New state      7 was old state      5
 New state      8 was old state      6
 New state      9 was old state      8
 New state     10 was old state      7
 New state     11 was old state      9
 New state     12 was old state     15
 Iteration     2 Dimension    96 NMult    48 NNew     48
 New state      7 was old state     13
 New state      8 was old state      7
 New state      9 was old state      8
 New state     12 was old state      9
 Iteration     3 Dimension   108 NMult    96 NNew     12
 New state     10 was old state     11
 New state     11 was old state     10
 Iteration     4 Dimension   119 NMult   108 NNew     11
 Iteration     5 Dimension   125 NMult   119 NNew      6
 Iteration     6 Dimension   127 NMult   125 NNew      2
 ***********************************************************************
 Excited states from <AA,BB:AA,BB> singles matrix:
 ***********************************************************************
 
 Ground to excited state transition densities written to RWF  633
 Ground to excited state transition electric dipole moments (Au):
       state          X           Y           Z        Dip. S.      Osc.
         1         0.0000      0.0000      0.0000      0.0000      0.0000
         2         0.0000      0.0000      0.0000      0.0000      0.0000
         3         0.0000      0.0000      0.0000      0.0000      0.0000
         4         0.0000      0.0000      0.0000      0.0000      0.0000
         5         0.0000      0.0000      0.0000      0.0000      0.0000
         6         0.0000      0.0000      0.0000      0.0000      0.0000
         7         0.0000      0.0000      0.0000      0.0000      0.0000
         8         0.0000      0.0000      0.0000      0.0000      0.0000
         9         0.0000      0.0000      0.0000      0.0000      0.0000
        10         0.0000      0.0000      0.0000      0.0000      0.0000
        11         0.0000      0.0000      0.0000      0.0000      0.0000
        12         0.0000      0.0000      0.0000      0.0000      0.0000
 Ground to excited state transition velocity dipole moments (Au):
       state          X           Y           Z        Dip. S.      Osc.
         1         0.0000      0.0000      0.0000      0.0000      0.0000
         2         0.0000      0.0000      0.0000      0.0000      0.0000
         3         0.0000      0.0000      0.0000      0.0000      0.0000
         4         0.0000      0.0000      0.0000      0.0000      0.0000
         5         0.0000      0.0000      0.0000      0.0000      0.0000
         6         0.0000      0.0000      0.0000      0.0000      0.0000
         7         0.0000      0.0000      0.0000      0.0000      0.0000
         8         0.0000      0.0000      0.0000      0.0000      0.0000
         9         0.0000      0.0000      0.0000      0.0000      0.0000
        10         0.0000      0.0000      0.0000      0.0000      0.0000
        11         0.0000      0.0000      0.0000      0.0000      0.0000
        12         0.0000      0.0000      0.0000      0.0000      0.0000
 Ground to excited state transition magnetic dipole moments (Au):
       state          X           Y           Z
         1         0.0000      0.0000      0.0000
         2         0.0000      0.0000      0.0000
         3         0.0000      0.0000      0.0000
         4         0.0000      0.0000      0.0000
         5         0.0000      0.0000      0.0000
         6         0.0000      0.0000      0.0000
         7         0.0000      0.0000      0.0000
         8         0.0000      0.0000      0.0000
         9         0.0000      0.0000      0.0000
        10         0.0000      0.0000      0.0000
        11         0.0000      0.0000      0.0000
        12         0.0000      0.0000      0.0000
 Ground to excited state transition velocity quadrupole moments (Au):
       state          XX          YY          ZZ          XY          XZ          YZ
         1         0.0000      0.0000      0.0000      0.0000      0.0000      0.0000
         2         0.0000      0.0000      0.0000      0.0000      0.0000      0.0000
         3         0.0000      0.0000      0.0000      0.0000      0.0000      0.0000
         4         0.0000      0.0000      0.0000      0.0000      0.0000      0.0000
         5         0.0000      0.0000      0.0000      0.0000      0.0000      0.0000
         6         0.0000      0.0000      0.0000      0.0000      0.0000      0.0000
         7         0.0000      0.0000      0.0000      0.0000      0.0000      0.0000
         8         0.0000      0.0000      0.0000      0.0000      0.0000      0.0000
         9         0.0000      0.0000      0.0000      0.0000      0.0000      0.0000
        10         0.0000      0.0000      0.0000      0.0000      0.0000      0.0000
        11         0.0000      0.0000      0.0000      0.0000      0.0000      0.0000
        12         0.0000      0.0000      0.0000      0.0000      0.0000      0.0000
 <0|del|b> * <b|rxdel|0> + <0|del|b> * <b|delr+rdel|0>
 Rotatory Strengths (R) in cgs (10**-40 erg-esu-cm/Gauss)
       state          XX          YY          ZZ    R(velocity)    E-M Angle
         1         0.0000      0.0000      0.0000      0.0000       90.00
         2         0.0000      0.0000      0.0000      0.0000       90.00
         3         0.0000      0.0000      0.0000      0.0000       90.00
         4         0.0000      0.0000      0.0000      0.0000       90.00
         5         0.0000      0.0000      0.0000      0.0000       90.00
         6         0.0000      0.0000      0.0000      0.0000       90.00
         7         0.0000      0.0000      0.0000      0.0000       90.00
         8         0.0000      0.0000      0.0000      0.0000       90.00
         9         0.0000      0.0000      0.0000      0.0000       90.00
        10         0.0000      0.0000      0.0000      0.0000       90.00
        11         0.0000      0.0000      0.0000      0.0000       90.00
        12         0.0000      0.0000      0.0000      0.0000       90.00
 1/2[<0|r|b>*<b|rxdel|0> + (<0|rxdel|b>*<b|r|0>)*]
 Rotatory Strengths (R) in cgs (10**-40 erg-esu-cm/Gauss)
       state          XX          YY          ZZ     R(length)
         1         0.0000      0.0000      0.0000      0.0000
         2         0.0000      0.0000      0.0000      0.0000
         3         0.0000      0.0000      0.0000      0.0000
         4         0.0000      0.0000      0.0000      0.0000
         5         0.0000      0.0000      0.0000      0.0000
         6         0.0000      0.0000      0.0000      0.0000
         7         0.0000      0.0000      0.0000      0.0000
         8         0.0000      0.0000      0.0000      0.0000
         9         0.0000      0.0000      0.0000      0.0000
        10         0.0000      0.0000      0.0000      0.0000
        11         0.0000      0.0000      0.0000      0.0000
        12         0.0000      0.0000      0.0000      0.0000
  1/2[<0|del|b>*<b|r|0> + (<0|r|b>*<b|del|0>)*] (Au)
       state          X           Y           Z        Dip. S.   Osc.(frdel)
         1         0.0000      0.0000      0.0000      0.0000      0.0000
         2         0.0000      0.0000      0.0000      0.0000      0.0000
         3         0.0000      0.0000      0.0000      0.0000      0.0000
         4         0.0000      0.0000      0.0000      0.0000      0.0000
         5         0.0000      0.0000      0.0000      0.0000      0.0000
         6         0.0000      0.0000      0.0000      0.0000      0.0000
         7         0.0000      0.0000      0.0000      0.0000      0.0000
         8         0.0000      0.0000      0.0000      0.0000      0.0000
         9         0.0000      0.0000      0.0000      0.0000      0.0000
        10         0.0000      0.0000      0.0000      0.0000      0.0000
        11         0.0000      0.0000      0.0000      0.0000      0.0000
        12         0.0000      0.0000      0.0000      0.0000      0.0000

 Excitation energies and oscillator strengths:
 
 Excited State   1:      Triplet-AU     3.3296 eV  372.37 nm  f=0.0000  <S**2>=2.000
      17 -> 30         0.17588
      20 -> 22        -0.44720
      20 -> 23        -0.17185
      21 -> 22        -0.17190
      21 -> 23         0.44725
 This state for optimization and/or second-order correction.
 Total Energy, E(CIS) =  -230.500593144    
 Copying the excited state density for this state as the 1-particle RhoCI density.
 
 Excited State   2:      Triplet-AU     5.1411 eV  241.16 nm  f=0.0000  <S**2>=2.000
      20 -> 22         0.19871
      20 -> 23        -0.45652
      21 -> 22         0.45673
      21 -> 23         0.19882
 
 Excited State   3:      Triplet-AU     5.1412 eV  241.16 nm  f=0.0000  <S**2>=2.000
      20 -> 22         0.45667
      20 -> 23         0.19874
      21 -> 22        -0.19879
      21 -> 23         0.45657
 
 Excited State   4:      Triplet-AU     6.0897 eV  203.60 nm  f=0.0000  <S**2>=2.000
      20 -> 22        -0.17929
      20 -> 23         0.46661
      21 -> 22         0.46637
      21 -> 23         0.17927
 
 Excited State   5:      Triplet-AG     7.9009 eV  156.92 nm  f=0.0000  <S**2>=2.000
      17 -> 22         0.52126
      17 -> 23        -0.22422
      20 -> 30        -0.29122
      21 -> 30        -0.28419
 
 Excited State   6:      Triplet-AG     7.9010 eV  156.92 nm  f=0.0000  <S**2>=2.000
      17 -> 22         0.22423
      17 -> 23         0.52125
      20 -> 30        -0.28418
      21 -> 30         0.29124
 
 Excited State   7:      Triplet-AU     9.1227 eV  135.91 nm  f=0.0000  <S**2>=2.000
      14 -> 30        -0.18087
      18 -> 23        -0.46104
      19 -> 22         0.46242
 
 Excited State   8:      Triplet-AG     9.2756 eV  133.67 nm  f=0.0000  <S**2>=2.000
      17 -> 26         0.14339
      20 -> 27        -0.10636
      21 -> 24         0.66787
      21 -> 28        -0.10635
 
 Excited State   9:      Triplet-AG     9.2761 eV  133.66 nm  f=0.0000  <S**2>=2.000
      17 -> 25         0.14340
      20 -> 24         0.66786
      20 -> 28         0.10636
      21 -> 27        -0.10639
 
 Excited State  10:      Triplet-AU     9.3034 eV  133.27 nm  f=0.0000  <S**2>=2.000
      16 -> 30         0.15042
      18 -> 22        -0.44506
      18 -> 23        -0.17223
      19 -> 22        -0.17215
      19 -> 23         0.44735
 
 Excited State  11:      Triplet-AU     9.3035 eV  133.27 nm  f=0.0000  <S**2>=2.000
      15 -> 30        -0.15040
      18 -> 22        -0.17235
      18 -> 23         0.44682
      19 -> 22         0.44560
      19 -> 23         0.17203
 
 Excited State  12:      Triplet-AU     9.3754 eV  132.24 nm  f=0.0000  <S**2>=2.000
      13 -> 30        -0.12699
      18 -> 22         0.48017
      19 -> 23         0.47813
 SavETr:  write IOETrn=   770 NScale= 10 NData=  16 NLR=1 NState=   12 LETran=     226.

 **********************************************************************

            Population analysis using the SCF density.

 **********************************************************************

 Orbital symmetries:
       Occupied  (AG) (AU) (AU) (AG) (AG) (AU) (AG) (AU) (AU) (AG)
                 (AG) (AG) (AU) (AU) (AU) (AU) (AU) (AG) (AG) (AG)
                 (AG)
       Virtual   (AU) (AU) (AG) (AU) (AU) (AG) (AG) (AU) (AG) (AG)
                 (AG) (AU) (AU) (AU) (AU) (AG) (AU) (AG) (AG) (AG)
                 (AG) (AG) (AG) (AU) (AU) (AU) (AU) (AG) (AU) (AG)
                 (AG) (AU) (AU) (AG) (AU) (AU) (AG) (AG) (AG) (AU)
                 (AU) (AU) (AG) (AG) (AU)
 The electronic state is 1-AG.
 Alpha  occ. eigenvalues --  -11.24026 -11.23973 -11.23973 -11.23856 -11.23856
 Alpha  occ. eigenvalues --  -11.23800  -1.14912  -1.01251  -1.01249  -0.81996
 Alpha  occ. eigenvalues --   -0.81995  -0.70681  -0.63725  -0.61489  -0.58439
 Alpha  occ. eigenvalues --   -0.58436  -0.49746  -0.48653  -0.48651  -0.33259
 Alpha  occ. eigenvalues --   -0.33257
 Alpha virt. eigenvalues --    0.14508   0.14508   0.23202   0.28912   0.28912
 Alpha virt. eigenvalues --    0.32874   0.32875   0.33392   0.35957   0.46864
 Alpha virt. eigenvalues --    0.46866   0.49455   0.49455   0.68320   0.75485
 Alpha virt. eigenvalues --    0.76873   0.76934   0.78220   0.83625   0.84534
 Alpha virt. eigenvalues --    0.84535   0.87264   0.87267   0.89679   0.89680
 Alpha virt. eigenvalues --    0.91528   0.91528   0.99052   1.13204   1.13264
 Alpha virt. eigenvalues --    1.13265   1.16262   1.16264   1.24161   1.26956
 Alpha virt. eigenvalues --    1.26960   1.27023   1.35812   1.35813   1.43463
 Alpha virt. eigenvalues --    1.43464   1.47382   1.72280   1.72285   2.16286
          Condensed to atoms (all electrons):
               1          2          3          4          5          6
     1  C    4.983452   0.514623  -0.056228  -0.030926  -0.056225   0.514621
     2  C    0.514623   4.983396   0.514610  -0.056225  -0.030923  -0.056199
     3  C   -0.056228   0.514610   4.983408   0.514621  -0.056199  -0.030923
     4  C   -0.030926  -0.056225   0.514621   4.983452   0.514623  -0.056228
     5  C   -0.056225  -0.030923  -0.056199   0.514623   4.983396   0.514610
     6  C    0.514621  -0.056199  -0.030923  -0.056228   0.514610   4.983408
     7  H    0.374773  -0.024406   0.002314   0.000131   0.002314  -0.024406
     8  H   -0.024397   0.374762  -0.024394   0.002313   0.000131   0.002312
     9  H    0.002313  -0.024390   0.374764  -0.024404   0.002312   0.000131
    10  H    0.000131   0.002314  -0.024406   0.374773  -0.024406   0.002314
    11  H    0.002313   0.000131   0.002312  -0.024397   0.374762  -0.024394
    12  H   -0.024404   0.002312   0.000131   0.002313  -0.024390   0.374764
               7          8          9         10         11         12
     1  C    0.374773  -0.024397   0.002313   0.000131   0.002313  -0.024404
     2  C   -0.024406   0.374762  -0.024390   0.002314   0.000131   0.002312
     3  C    0.002314  -0.024394   0.374764  -0.024406   0.002312   0.000131
     4  C    0.000131   0.002313  -0.024404   0.374773  -0.024397   0.002313
     5  C    0.002314   0.000131   0.002312  -0.024406   0.374762  -0.024390
     6  C   -0.024406   0.002312   0.000131   0.002314  -0.024394   0.374764
     7  H    0.470094  -0.000305  -0.000103   0.000005  -0.000103  -0.000305
     8  H   -0.000305   0.470051  -0.000303  -0.000103   0.000005  -0.000103
     9  H   -0.000103  -0.000303   0.470055  -0.000305  -0.000103   0.000005
    10  H    0.000005  -0.000103  -0.000305   0.470094  -0.000305  -0.000103
    11  H   -0.000103   0.000005  -0.000103  -0.000305   0.470051  -0.000303
    12  H   -0.000305  -0.000103   0.000005  -0.000103  -0.000303   0.470055
 Mulliken charges:
               1
     1  C   -0.200044
     2  C   -0.200004
     3  C   -0.200009
     4  C   -0.200044
     5  C   -0.200004
     6  C   -0.200009
     7  H    0.199998
     8  H    0.200031
     9  H    0.200028
    10  H    0.199998
    11  H    0.200031
    12  H    0.200028
 Sum of Mulliken charges =   0.00000
 Mulliken charges with hydrogens summed into heavy atoms:
               1
     1  C   -0.000047
     2  C    0.000028
     3  C    0.000019
     4  C   -0.000047
     5  C    0.000028
     6  C    0.000019
 Electronic spatial extent (au):  <R**2>=            461.1285
 Charge=              0.0000 electrons
 Dipole moment (field-independent basis, Debye):
    X=              0.0000    Y=              0.0000    Z=              0.0000  Tot=              0.0000
 Quadrupole moment (field-independent basis, Debye-Ang):
   XX=            -31.7056   YY=            -31.7061   ZZ=            -40.4426
   XY=             -0.0004   XZ=              0.0027   YZ=             -0.0056
 Traceless Quadrupole moment (field-independent basis, Debye-Ang):
   XX=              2.9125   YY=              2.9120   ZZ=             -5.8245
   XY=             -0.0004   XZ=              0.0027   YZ=             -0.0056
 Octapole moment (field-independent basis, Debye-Ang**2):
  XXX=              0.0000  YYY=              0.0000  ZZZ=              0.0000  XYY=              0.0000
  XXY=              0.0000  XXZ=              0.0000  XZZ=              0.0000  YZZ=              0.0000
  YYZ=              0.0000  XYZ=              0.0000
 Hexadecapole moment (field-independent basis, Debye-Ang**3):
 XXXX=           -267.6677 YYYY=           -267.6600 ZZZZ=            -43.9158 XXXY=              0.0071
 XXXZ=             -0.0240 YYYX=              0.0000 YYYZ=              0.0505 ZZZX=             -0.0443
 ZZZY=              0.0932 XXYY=            -89.2230 XXZZ=            -63.0164 YYZZ=            -63.0142
 XXYZ=              0.0168 YYXZ=             -0.0080 ZZXY=              0.0019
 N-N= 2.029242874114D+02 E-N=-9.426736213163D+02  KE= 2.306035661891D+02
 Symmetry AG   KE= 1.162830346867D+02
 Symmetry AU   KE= 1.143205315025D+02
 Unable to Open any file for archive entry.
 1\1\GINC-MEDUSA\SP\RCIS-Full\6-31G\C6H6\PLESTRAN\28-Oct-2015\0\\# hf/6
 -31G geom=check guess=read cis(full,nstates=12,triplet)\\Benzene tripl
 et\\0,1\C,0,-0.2069851582,-0.182179772,0.0000714421\C,0,1.1916738876,-
 0.1823529436,0.0004985861\C,0,1.8910553573,1.0288676731,-0.0000660445\
 C,0,1.1917349868,2.2401336715,-0.0010564977\C,0,-0.206924055,2.2403068
 493,-0.0014838269\C,0,-0.9063055337,1.0290862369,-0.0009191682\H,0,-0.
 750746176,-1.1238955859,0.0005098114\H,0,1.7352854346,-1.124149144,0.0
 012705069\H,0,2.9784784245,1.0289339946,0.0002669247\H,0,1.7354959994,
 3.1818494841,-0.0014954845\H,0,-0.7505356043,3.1821030485,-0.002255373
 8\H,0,-1.9937286031,1.0290199075,-0.0012518757\\Version=ES64L-GDVRevI.
 03+\State=1-AG\HF=-230.622952\MP2=-231.1477836\EFC=0.\RMSD=3.373e-10\P
 G=CI [X(C6H6)]\\@
 The archive entry for this job was punched.


 ALMOST ALL THE CHEMICAL PROCESSES WHICH OCCUR IN NATURE,
 WHETHER IN ANIMAL OR VEGETABLE ORGANISMS,
 OR IN THE NON-LIVING SURFACE OF THE EARTH ... 
 TAKE PLACE BETWEEN SUBSTANCES IN SOLUTION

                                    -- W. OSTWALD, 1890
 Job cpu time:       0 days  0 hours  0 minutes  3.4 seconds.
 Elapsed time:       0 days  0 hours  0 minutes  1.6 seconds.
 File lengths (MBytes):  RWF=    125 Int=      0 D2E=      0 Chk=      4 Scr=      1
 Normal termination of Gaussian DV at Wed Oct 28 09:59:42 2015.
