 Entering Gaussian System, Link 0=gdv
 Input=benzene_6-31G.com
 Output=benzene_6-31G.log
 Initial command:
 /home/gauss/gdvi01p/gdv/l1.exe "/home/GauScr/Gau-32694.inp" -scrdir="/home/GauScr/"
 Entering Link 1 = /home/gauss/gdvi01p/gdv/l1.exe PID=     32695.
  
 Copyright (c) 1988,1990,1992,1993,1995,1998,2003,2009,2014,
            Gaussian, Inc.  All Rights Reserved.
  
 This is the private, development version of
 the Gaussian(R) DV system of programs. It is based on
 the Gaussian(R) 09 system (copyright 2009, Gaussian, Inc.),
 the Gaussian(R) 03 system (copyright 2003, Gaussian, Inc.),
 the Gaussian(R) 98 system (copyright 1998, Gaussian, Inc.),
 the Gaussian(R) 94 system (copyright 1995, Gaussian, Inc.),
 the Gaussian 92(TM) system (copyright 1992, Gaussian, Inc.),
 the Gaussian 90(TM) system (copyright 1990, Gaussian, Inc.),
 the Gaussian 88(TM) system (copyright 1988, Gaussian, Inc.),
 the Gaussian 86(TM) system (copyright 1986, Carnegie Mellon
 University), and the Gaussian 82(TM) system (copyright 1983,
 Carnegie Mellon University). Gaussian is a federally registered
 trademark of Gaussian, Inc.
  
 This software contains proprietary and confidential information,
 including trade secrets, belonging to Gaussian, Inc.
  
 This software is provided under written license and may be
 used, copied, transmitted, or stored only in accord with that
 written license.
  
 The following legend is applicable only to US Government
 contracts under FAR:
  
                    RESTRICTED RIGHTS LEGEND
  
 Use, reproduction and disclosure by the US Government is
 subject to restrictions as set forth in subparagraphs (a)
 and (c) of the Commercial Computer Software - Restricted
 Rights clause in FAR 52.227-19.
  
 Gaussian, Inc.
 340 Quinnipiac St., Bldg. 40, Wallingford CT 06492
  
  
 ---------------------------------------------------------------
 Warning -- This program may not be used in any manner that
 competes with the business of Gaussian, Inc. or will provide
 assistance to any competitor of Gaussian, Inc.  The licensee
 of this program is prohibited from giving any competitor of
 Gaussian, Inc. access to this program.  By using this program,
 the user acknowledges that Gaussian, Inc. is engaged in the
 business of creating and licensing software in the field of
 computational chemistry and represents and warrants to the
 licensee that it is not a competitor of Gaussian, Inc. and that
 it will not use this program in any manner prohibited above.
 ---------------------------------------------------------------
  

 Cite this work as:
 Gaussian Development Version, Revision I.01+,
 M. J. Frisch, G. W. Trucks, H. B. Schlegel, G. E. Scuseria, 
 M. A. Robb, J. R. Cheeseman, G. Scalmani, V. Barone, B. Mennucci, 
 G. A. Petersson, H. Nakatsuji, M. Caricato, X. Li, H. P. Hratchian, 
 A. F. Izmaylov, J. Bloino, B. G. Janesko, F. Lipparini, G. Zheng, 
 J. L. Sonnenberg, W. Liang, M. Hada, M. Ehara, K. Toyota, R. Fukuda, 
 J. Hasegawa, M. Ishida, T. Nakajima, Y. Honda, O. Kitao, H. Nakai, 
 T. Vreven, J. A. Montgomery, Jr., J. E. Peralta, F. Ogliaro, 
 M. Bearpark, J. J. Heyd, E. Brothers, K. N. Kudin, V. N. Staroverov, 
 T. Keith, R. Kobayashi, J. Normand, K. Raghavachari, A. Rendell, 
 J. C. Burant, S. S. Iyengar, J. Tomasi, M. Cossi, N. Rega, 
 J. M. Millam, M. Klene, J. E. Knox, J. B. Cross, V. Bakken, 
 C. Adamo, J. Jaramillo, R. Gomperts, R. E. Stratmann, O. Yazyev, 
 A. J. Austin, R. Cammi, C. Pomelli, J. W. Ochterski, R. L. Martin, 
 K. Morokuma, V. G. Zakrzewski, G. A. Voth, P. Salvador, 
 J. J. Dannenberg, S. Dapprich, P. V. Parandekar, N. J. Mayhall, 
 A. D. Daniels, O. Farkas, J. B. Foresman, J. V. Ortiz, 
 J. Cioslowski, and D. J. Fox, Gaussian, Inc., Wallingford CT, 2010.
 
 *******************************************
 Gaussian DV:  ES64L-GDVRevI.01+ 11-Sep-2014
                 22-Sep-2015 
 *******************************************
 ----------------------------------
 # hf/6-31G gfinput pop=full nosymm
 ----------------------------------
 1/38=1,172=1/1;
 2/12=2,15=1,17=6,18=5,40=1/2;
 3/5=1,6=6,11=9,24=10,25=1,30=1/1,2,3;
 4//1;
 5/5=2,38=5/2;
 6/7=3,28=1/1;
 99/5=1,9=1/99;
 -------------
 Benzene 6-31G
 -------------
 Symbolic Z-matrix:
 Charge =  0 Multiplicity = 1
 C                    -0.64864   0.24131  -0.00045 
 C                     0.74652   0.24131  -0.00045 
 C                     1.44406   1.44906  -0.00045 
 C                     0.74641   2.65757  -0.00165 
 C                    -0.64842   2.65749  -0.00213 
 C                    -1.34602   1.44928  -0.00113 
 H                    -1.19839  -0.71101   0. 
 H                     1.29603  -0.71121   0.00087 
 H                     2.54374   1.44914   0.00018 
 H                     1.29661   3.60971  -0.00171 
 H                    -1.19854   3.60977  -0.00308 
 H                    -2.44562   1.44947  -0.00131 
 
                          Input orientation:                          
 ---------------------------------------------------------------------
 Center     Atomic      Atomic             Coordinates (Angstroms)
 Number     Number       Type             X           Y           Z
 ---------------------------------------------------------------------
      1          6           0       -0.648635    0.241308   -0.000450
      2          6           0        0.746525    0.241308   -0.000450
      3          6           0        1.444063    1.449059   -0.000450
      4          6           0        0.746409    2.657568   -0.001649
      5          6           0       -0.648416    2.657490   -0.002128
      6          6           0       -1.346017    1.449284   -0.001132
      7          1           0       -1.198394   -0.711009    0.000000
      8          1           0        1.296033   -0.711205    0.000865
      9          1           0        2.543743    1.449139    0.000184
     10          1           0        1.296609    3.609711   -0.001708
     11          1           0       -1.198538    3.609771   -0.003081
     12          1           0       -2.445621    1.449467   -0.001312
 ---------------------------------------------------------------------
                    Distance matrix (angstroms):
                    1          2          3          4          5
     1  C    0.000000
     2  C    1.395160   0.000000
     3  C    2.416205   1.394712   0.000000
     4  C    2.790065   2.416260   1.395427   0.000000
     5  C    2.416183   2.789946   2.416356   1.394825   0.000000
     6  C    1.394829   2.416183   2.790080   2.416236   1.395138
     7  H    1.099610   2.165553   3.412986   3.889675   3.413102
     8  H    2.165414   1.099655   2.165330   3.413316   3.889601
     9  H    3.413229   2.165375   1.099680   2.165806   3.413209
    10  H    3.889745   3.413024   2.165678   1.099680   2.165606
    11  H    3.413055   3.889707   3.413506   2.165528   1.099761
    12  H    2.165365   3.413128   3.889684   3.412999   2.165471
                    6          7          8          9         10
     6  C    0.000000
     7  H    2.165331   0.000000
     8  H    3.412938   2.494427   0.000000
     9  H    3.889760   4.320860   2.494768   0.000000
    10  H    3.413344   4.989355   4.320917   2.494678   0.000000
    11  H    2.165516   4.320781   4.989362   4.321228   2.495147
    12  H    1.099604   2.494641   4.320704   4.989364   4.320988
                   11         12
    11  H    0.000000
    12  H    2.494420   0.000000
 Symmetry turned off by external request.
 Stoichiometry    C6H6
 Framework group  C1[X(C6H6)]
 Deg. of freedom    30
 Full point group                 C1      NOp   1
 Rotational constants (GHZ):      5.6865650      5.6862640      2.8432074
 Standard basis: 6-31G (6D, 7F)
 AO basis set in the form of general basis input (Overlap normalization):
      1 0
 S   6 1.00       0.000000000000
      0.3047524880D+04  0.1834737132D-02
      0.4573695180D+03  0.1403732281D-01
      0.1039486850D+03  0.6884262226D-01
      0.2921015530D+02  0.2321844432D+00
      0.9286662960D+01  0.4679413484D+00
      0.3163926960D+01  0.3623119853D+00
 SP   3 1.00       0.000000000000
      0.7868272350D+01 -0.1193324198D+00  0.6899906659D-01
      0.1881288540D+01 -0.1608541517D+00  0.3164239610D+00
      0.5442492580D+00  0.1143456438D+01  0.7443082909D+00
 SP   1 1.00       0.000000000000
      0.1687144782D+00  0.1000000000D+01  0.1000000000D+01
 ****
      2 0
 S   6 1.00       0.000000000000
      0.3047524880D+04  0.1834737132D-02
      0.4573695180D+03  0.1403732281D-01
      0.1039486850D+03  0.6884262226D-01
      0.2921015530D+02  0.2321844432D+00
      0.9286662960D+01  0.4679413484D+00
      0.3163926960D+01  0.3623119853D+00
 SP   3 1.00       0.000000000000
      0.7868272350D+01 -0.1193324198D+00  0.6899906659D-01
      0.1881288540D+01 -0.1608541517D+00  0.3164239610D+00
      0.5442492580D+00  0.1143456438D+01  0.7443082909D+00
 SP   1 1.00       0.000000000000
      0.1687144782D+00  0.1000000000D+01  0.1000000000D+01
 ****
      3 0
 S   6 1.00       0.000000000000
      0.3047524880D+04  0.1834737132D-02
      0.4573695180D+03  0.1403732281D-01
      0.1039486850D+03  0.6884262226D-01
      0.2921015530D+02  0.2321844432D+00
      0.9286662960D+01  0.4679413484D+00
      0.3163926960D+01  0.3623119853D+00
 SP   3 1.00       0.000000000000
      0.7868272350D+01 -0.1193324198D+00  0.6899906659D-01
      0.1881288540D+01 -0.1608541517D+00  0.3164239610D+00
      0.5442492580D+00  0.1143456438D+01  0.7443082909D+00
 SP   1 1.00       0.000000000000
      0.1687144782D+00  0.1000000000D+01  0.1000000000D+01
 ****
      4 0
 S   6 1.00       0.000000000000
      0.3047524880D+04  0.1834737132D-02
      0.4573695180D+03  0.1403732281D-01
      0.1039486850D+03  0.6884262226D-01
      0.2921015530D+02  0.2321844432D+00
      0.9286662960D+01  0.4679413484D+00
      0.3163926960D+01  0.3623119853D+00
 SP   3 1.00       0.000000000000
      0.7868272350D+01 -0.1193324198D+00  0.6899906659D-01
      0.1881288540D+01 -0.1608541517D+00  0.3164239610D+00
      0.5442492580D+00  0.1143456438D+01  0.7443082909D+00
 SP   1 1.00       0.000000000000
      0.1687144782D+00  0.1000000000D+01  0.1000000000D+01
 ****
      5 0
 S   6 1.00       0.000000000000
      0.3047524880D+04  0.1834737132D-02
      0.4573695180D+03  0.1403732281D-01
      0.1039486850D+03  0.6884262226D-01
      0.2921015530D+02  0.2321844432D+00
      0.9286662960D+01  0.4679413484D+00
      0.3163926960D+01  0.3623119853D+00
 SP   3 1.00       0.000000000000
      0.7868272350D+01 -0.1193324198D+00  0.6899906659D-01
      0.1881288540D+01 -0.1608541517D+00  0.3164239610D+00
      0.5442492580D+00  0.1143456438D+01  0.7443082909D+00
 SP   1 1.00       0.000000000000
      0.1687144782D+00  0.1000000000D+01  0.1000000000D+01
 ****
      6 0
 S   6 1.00       0.000000000000
      0.3047524880D+04  0.1834737132D-02
      0.4573695180D+03  0.1403732281D-01
      0.1039486850D+03  0.6884262226D-01
      0.2921015530D+02  0.2321844432D+00
      0.9286662960D+01  0.4679413484D+00
      0.3163926960D+01  0.3623119853D+00
 SP   3 1.00       0.000000000000
      0.7868272350D+01 -0.1193324198D+00  0.6899906659D-01
      0.1881288540D+01 -0.1608541517D+00  0.3164239610D+00
      0.5442492580D+00  0.1143456438D+01  0.7443082909D+00
 SP   1 1.00       0.000000000000
      0.1687144782D+00  0.1000000000D+01  0.1000000000D+01
 ****
      7 0
 S   3 1.00       0.000000000000
      0.1873113696D+02  0.3349460434D-01
      0.2825394365D+01  0.2347269535D+00
      0.6401216923D+00  0.8137573261D+00
 S   1 1.00       0.000000000000
      0.1612777588D+00  0.1000000000D+01
 ****
      8 0
 S   3 1.00       0.000000000000
      0.1873113696D+02  0.3349460434D-01
      0.2825394365D+01  0.2347269535D+00
      0.6401216923D+00  0.8137573261D+00
 S   1 1.00       0.000000000000
      0.1612777588D+00  0.1000000000D+01
 ****
      9 0
 S   3 1.00       0.000000000000
      0.1873113696D+02  0.3349460434D-01
      0.2825394365D+01  0.2347269535D+00
      0.6401216923D+00  0.8137573261D+00
 S   1 1.00       0.000000000000
      0.1612777588D+00  0.1000000000D+01
 ****
     10 0
 S   3 1.00       0.000000000000
      0.1873113696D+02  0.3349460434D-01
      0.2825394365D+01  0.2347269535D+00
      0.6401216923D+00  0.8137573261D+00
 S   1 1.00       0.000000000000
      0.1612777588D+00  0.1000000000D+01
 ****
     11 0
 S   3 1.00       0.000000000000
      0.1873113696D+02  0.3349460434D-01
      0.2825394365D+01  0.2347269535D+00
      0.6401216923D+00  0.8137573261D+00
 S   1 1.00       0.000000000000
      0.1612777588D+00  0.1000000000D+01
 ****
     12 0
 S   3 1.00       0.000000000000
      0.1873113696D+02  0.3349460434D-01
      0.2825394365D+01  0.2347269535D+00
      0.6401216923D+00  0.8137573261D+00
 S   1 1.00       0.000000000000
      0.1612777588D+00  0.1000000000D+01
 ****

    66 basis functions,   156 primitive gaussians,    66 cartesian basis functions
    21 alpha electrons       21 beta electrons
       nuclear repulsion energy       203.0307491037 Hartrees.
 NAtoms=   12 NActive=   12 NUniq=   12 SFac= 1.00D+00 NAtFMM=   60 NAOKFM=F Big=F
 Integral buffers will be    131072 words long.
 Raffenetti 1 integral format.
 Two-electron integral symmetry is turned off.
 One-electron integrals computed using PRISM.
 NBasis=    66 RedAO= T EigKep=  7.01D-04  NBF=    66
 NBsUse=    66 1.00D-06 EigRej= -1.00D+00 NBFU=    66
 ExpMin= 1.61D-01 ExpMax= 3.05D+03 ExpMxC= 4.57D+02 IAcc=1 IRadAn=         1 AccDes= 0.00D+00
 Harris functional with IExCor=  205 and IRadAn=       1 diagonalized for initial guess.
 HarFok:  IExCor=  205 AccDes= 0.00D+00 IRadAn=         1 IDoV= 1 UseB2=F ITyADJ=14
 ICtDFT=  3500011 ScaDFX=  1.000000  1.000000  1.000000  1.000000
 FoFCou: FMM=F IPFlag=           0 FMFlag=      100000 FMFlg1=           0
         NFxFlg=           0 DoJE=T BraDBF=F KetDBF=T FulRan=T
         wScrn=  0.000000 ICntrl=       500 IOpCl=  0 I1Cent=   200000004 NGrid=           0
         NMat0=    1 NMatS0=      1 NMatT0=    0 NMatD0=    1 NMtDS0=    0 NMtDT0=    0
 Symmetry not used in FoFCou.
 Keep R1 ints in memory in canonical form, NReq=3289487.
 Requested convergence on RMS density matrix=1.00D-08 within 128 cycles.
 Requested convergence on MAX density matrix=1.00D-06.
 Requested convergence on             energy=1.00D-06.
 No special actions if energy rises.
 SCF Done:  E(RHF) =  -230.621312783     A.U. after   11 cycles
            NFock= 11  Conv=0.44D-08     -V/T= 2.0003

 **********************************************************************

            Population analysis using the SCF density.

 **********************************************************************

 Alpha  occ. eigenvalues --  -11.24124 -11.24070 -11.24070 -11.23952 -11.23951
 Alpha  occ. eigenvalues --  -11.23894  -1.15180  -1.01308  -1.01303  -0.81857
 Alpha  occ. eigenvalues --   -0.81852  -0.70464  -0.63131  -0.61700  -0.58248
 Alpha  occ. eigenvalues --   -0.58246  -0.49965  -0.48483  -0.48474  -0.33386
 Alpha  occ. eigenvalues --   -0.33381
 Alpha virt. eigenvalues --    0.14561   0.14567   0.22784   0.28618   0.28619
 Alpha virt. eigenvalues --    0.32766   0.32768   0.33168   0.36127   0.46880
 Alpha virt. eigenvalues --    0.46886   0.49660   0.49667   0.68105   0.75363
 Alpha virt. eigenvalues --    0.77039   0.77170   0.78171   0.84025   0.84427
 Alpha virt. eigenvalues --    0.84430   0.87365   0.87376   0.89668   0.89674
 Alpha virt. eigenvalues --    0.91503   0.91506   0.99065   1.12348   1.12350
 Alpha virt. eigenvalues --    1.13100   1.15350   1.15355   1.22999   1.27086
 Alpha virt. eigenvalues --    1.27100   1.27345   1.36151   1.36157   1.43548
 Alpha virt. eigenvalues --    1.43554   1.47468   1.71831   1.71837   2.15827
     Molecular Orbital Coefficients:
                           1         2         3         4         5
                           O         O         O         O         O
     Eigenvalues --   -11.24124 -11.24070 -11.24070 -11.23952 -11.23951
   1 1   C  1S          0.39067   0.56647  -0.14155   0.55055  -0.13385
   2        2S          0.00899   0.01383  -0.00346   0.01431  -0.00348
   3        2PX        -0.00003   0.00016   0.00021   0.00015  -0.00008
   4        2PY        -0.00004   0.00015  -0.00018   0.00027  -0.00004
   5        2PZ         0.00000   0.00000   0.00000   0.00000   0.00000
   6        3S         -0.00267  -0.00632   0.00160  -0.01264   0.00311
   7        3PX         0.00023  -0.00066  -0.00142  -0.00107   0.00197
   8        3PY         0.00039  -0.00027   0.00100  -0.00277  -0.00030
   9        3PZ         0.00000   0.00000   0.00000   0.00000   0.00000
  10 2   C  1S          0.39630   0.17183  -0.54966  -0.14589   0.55578
  11        2S          0.00912   0.00418  -0.01342  -0.00378   0.01446
  12        2PX         0.00002   0.00020   0.00017   0.00008  -0.00015
  13        2PY        -0.00005   0.00019  -0.00014  -0.00005   0.00028
  14        2PZ         0.00000   0.00000   0.00000   0.00000   0.00000
  15        3S         -0.00267  -0.00188   0.00608   0.00314  -0.01302
  16        3PX        -0.00020  -0.00143  -0.00070  -0.00191   0.00110
  17        3PY         0.00043  -0.00099   0.00020  -0.00035  -0.00295
  18        3PZ         0.00000   0.00000   0.00000   0.00000   0.00000
  19 3   C  1S          0.41632  -0.38562  -0.42294  -0.41036  -0.40688
  20        2S          0.00961  -0.00944  -0.01035  -0.01071  -0.01060
  21        2PX         0.00004   0.00015   0.00016   0.00023   0.00023
  22        2PY        -0.00001   0.00020  -0.00019  -0.00003   0.00003
  23        2PZ         0.00000   0.00000   0.00000   0.00000   0.00000
  24        3S         -0.00294   0.00434   0.00488   0.01005   0.00966
  25        3PX        -0.00043  -0.00040  -0.00049  -0.00253  -0.00232
  26        3PY         0.00005  -0.00131   0.00125   0.00135  -0.00132
  27        3PZ         0.00000   0.00000   0.00000   0.00000   0.00000
  28 4   C  1S          0.42568  -0.55051   0.14105   0.56474  -0.13653
  29        2S          0.00984  -0.01348   0.00346   0.01474  -0.00356
  30        2PX         0.00002   0.00017   0.00021  -0.00015   0.00007
  31        2PY         0.00003   0.00015  -0.00018  -0.00028   0.00005
  32        2PZ         0.00000   0.00000   0.00000   0.00000   0.00000
  33        3S         -0.00304   0.00635  -0.00166  -0.01380   0.00333
  34        3PX        -0.00021  -0.00071  -0.00145   0.00135  -0.00199
  35        3PY        -0.00037  -0.00033   0.00105   0.00320   0.00019
  36        3PZ         0.00000   0.00000   0.00000   0.00000   0.00000
  37 5   C  1S          0.41290  -0.14023   0.55437  -0.17902   0.55016
  38        2S          0.00952  -0.00344   0.01356  -0.00468   0.01434
  39        2PX        -0.00003   0.00020   0.00017  -0.00008   0.00014
  40        2PY         0.00003   0.00018  -0.00015   0.00007  -0.00028
  41        2PZ         0.00000   0.00000   0.00000   0.00000   0.00000
  42        3S         -0.00288   0.00154  -0.00627   0.00452  -0.01314
  43        3PX         0.00027  -0.00145  -0.00071   0.00216  -0.00113
  44        3PY        -0.00036  -0.00099   0.00026  -0.00013   0.00304
  45        3PZ         0.00000   0.00000   0.00000   0.00000   0.00000
  46 6   C  1S          0.39605   0.41251   0.40466  -0.38607  -0.42323
  47        2S          0.00911   0.01006   0.00989  -0.01003  -0.01102
  48        2PX        -0.00005   0.00015   0.00015  -0.00022  -0.00024
  49        2PY        -0.00001   0.00020  -0.00019   0.00003  -0.00003
  50        2PZ         0.00000   0.00000   0.00000   0.00000   0.00000
  51        3S         -0.00268  -0.00455  -0.00453   0.00878   0.01003
  52        3PX         0.00047  -0.00038  -0.00042   0.00201   0.00243
  53        3PY         0.00004  -0.00128   0.00127  -0.00139   0.00130
  54        3PZ         0.00000   0.00000   0.00000   0.00000   0.00000
  55 7   H  1S         -0.00014  -0.00023   0.00006  -0.00014   0.00003
  56        2S          0.00109   0.00101  -0.00025   0.00064  -0.00015
  57 8   H  1S         -0.00015  -0.00007   0.00022   0.00003  -0.00014
  58        2S          0.00111   0.00032  -0.00098  -0.00019   0.00061
  59 9   H  1S         -0.00016   0.00016   0.00017   0.00011   0.00010
  60        2S          0.00114  -0.00067  -0.00074  -0.00041  -0.00044
  61 10  H  1S         -0.00016   0.00022  -0.00006  -0.00014   0.00003
  62        2S          0.00116  -0.00095   0.00024   0.00057  -0.00014
  63 11  H  1S         -0.00015   0.00006  -0.00022   0.00005  -0.00014
  64        2S          0.00114  -0.00024   0.00098  -0.00016   0.00059
  65 12  H  1S         -0.00015  -0.00017  -0.00016   0.00009   0.00011
  66        2S          0.00111   0.00074   0.00071  -0.00046  -0.00045
                           6         7         8         9        10
                           O         O         O         O         O
     Eigenvalues --   -11.23894  -1.15180  -1.01308  -1.01303  -0.81857
   1 1   C  1S          0.42176  -0.09254  -0.03351  -0.12458  -0.09579
   2        2S          0.01183   0.18234   0.06742   0.25065   0.19588
   3        2PX         0.00015   0.03196   0.10181  -0.00899   0.02960
   4        2PY         0.00025   0.05543  -0.04805   0.04510  -0.08030
   5        2PZ         0.00000  -0.00003   0.00004  -0.00003   0.00004
   6        3S         -0.02206   0.10900   0.05130   0.19066   0.17630
   7        3PX        -0.00451   0.00399   0.00629  -0.00330  -0.00985
   8        3PY        -0.00782   0.00689  -0.00452  -0.00156  -0.04521
   9        3PZ         0.00000   0.00000   0.00000   0.00000   0.00002
  10 2   C  1S         -0.41661  -0.09254  -0.12469  -0.03315   0.02081
  11        2S         -0.01169   0.18235   0.25086   0.06670  -0.04255
  12        2PX         0.00014  -0.03196   0.00873  -0.10186  -0.18563
  13        2PY        -0.00025   0.05543   0.04500  -0.04819  -0.09346
  14        2PZ         0.00000   0.00000   0.00004   0.00001  -0.00002
  15        3S          0.02188   0.10900   0.19082   0.05078  -0.03830
  16        3PX        -0.00452  -0.00398   0.00328  -0.00631  -0.04316
  17        3PY         0.00775   0.00688  -0.00157  -0.00451  -0.01385
  18        3PZ         0.00000   0.00001   0.00002   0.00001  -0.00001
  19 3   C  1S          0.39699  -0.09250  -0.09114   0.09132   0.07491
  20        2S          0.01118   0.18227   0.18338  -0.18373  -0.15320
  21        2PX        -0.00028  -0.06397  -0.02532   0.02534  -0.04277
  22        2PY         0.00000  -0.00010  -0.08240  -0.08193   0.14172
  23        2PZ         0.00000  -0.00004   0.00002   0.00007  -0.00008
  24        3S         -0.02145   0.10895   0.13948  -0.13980  -0.13787
  25        3PX         0.00888  -0.00796   0.00221  -0.00214  -0.03449
  26        3PY         0.00006   0.00001  -0.00564  -0.00564   0.03023
  27        3PZ         0.00001  -0.00001   0.00000   0.00001  -0.00003
  28 4   C  1S         -0.38822  -0.09248   0.03361   0.12457  -0.09578
  29        2S         -0.01095   0.18223  -0.06763  -0.25063   0.19587
  30        2PX         0.00014  -0.03204   0.10185  -0.00875  -0.02953
  31        2PY         0.00024  -0.05535  -0.04801   0.04498   0.08022
  32        2PZ         0.00000   0.00004   0.00006  -0.00005  -0.00004
  33        3S          0.02125   0.10896  -0.05142  -0.19068   0.17628
  34        3PX        -0.00442  -0.00399   0.00624  -0.00328   0.00994
  35        3PY        -0.00764  -0.00692  -0.00457  -0.00152   0.04517
  36        3PZ         0.00000   0.00001   0.00000  -0.00001  -0.00001
  37 5   C  1S          0.40031  -0.09252   0.12465   0.03330   0.02087
  38        2S          0.01126   0.18231  -0.25079  -0.06701  -0.04268
  39        2PX         0.00014   0.03200   0.00854  -0.10192   0.18567
  40        2PY        -0.00024  -0.05540   0.04491  -0.04816   0.09340
  41        2PZ         0.00000   0.00006  -0.00005   0.00000  -0.00003
  42        3S         -0.02151   0.10896  -0.19079  -0.05095  -0.03838
  43        3PX        -0.00440   0.00397   0.00327  -0.00626   0.04319
  44        3PY         0.00772  -0.00688  -0.00155  -0.00458   0.01384
  45        3PZ        -0.00001   0.00001   0.00000   0.00000   0.00000
  46 6   C  1S         -0.41654  -0.09254   0.09109  -0.09137   0.07496
  47        2S         -0.01169   0.18234  -0.18326   0.18383  -0.15329
  48        2PX        -0.00029   0.06398  -0.02528   0.02534   0.04286
  49        2PY         0.00000  -0.00004  -0.08222  -0.08216  -0.14176
  50        2PZ         0.00000  -0.00001   0.00007   0.00004   0.00012
  51        3S          0.02190   0.10901  -0.13941   0.13983  -0.13798
  52        3PX         0.00898   0.00796   0.00216  -0.00221   0.03448
  53        3PY        -0.00004   0.00000  -0.00565  -0.00564  -0.03030
  54        3PZ         0.00000   0.00000   0.00001   0.00000   0.00003
  55 7   H  1S         -0.00022   0.03460   0.01941   0.07217   0.10624
  56        2S         -0.00086   0.00465   0.00401   0.01487   0.03642
  57 8   H  1S          0.00022   0.03460   0.07221   0.01922  -0.02304
  58        2S          0.00086   0.00465   0.01487   0.00398  -0.00788
  59 9   H  1S         -0.00021   0.03458   0.05277  -0.05290  -0.08305
  60        2S         -0.00088   0.00465   0.01086  -0.01092  -0.02846
  61 10  H  1S          0.00021   0.03458  -0.01945  -0.07215   0.10620
  62        2S          0.00089   0.00466  -0.00399  -0.01488   0.03640
  63 11  H  1S         -0.00022   0.03458  -0.07217  -0.01927  -0.02318
  64        2S         -0.00088   0.00464  -0.01488  -0.00396  -0.00795
  65 12  H  1S          0.00022   0.03460  -0.05276   0.05292  -0.08316
  66        2S          0.00086   0.00465  -0.01088   0.01090  -0.02852
                          11        12        13        14        15
                           O         O         O         O         O
     Eigenvalues --    -0.81852  -0.70464  -0.63131  -0.61700  -0.58248
   1 1   C  1S          0.03120   0.00952  -0.05609  -0.00004  -0.00117
   2        2S         -0.06379  -0.01850   0.12222   0.00010   0.00285
   3        2PX         0.18352   0.09641  -0.06494   0.23876   0.07990
   4        2PY        -0.08537   0.16716  -0.11208  -0.13767  -0.02530
   5        2PZ         0.00006  -0.00010   0.00003   0.00005  -0.00004
   6        3S         -0.05743  -0.03936   0.01952   0.00005   0.00221
   7        3PX         0.04448   0.03644  -0.08273   0.08003   0.01741
   8        3PY        -0.00908   0.06316  -0.14323  -0.04621  -0.00105
   9        3PZ         0.00000  -0.00003   0.00007   0.00002  -0.00002
  10 2   C  1S         -0.09856   0.00954   0.05610   0.00005  -0.01649
  11        2S          0.20154  -0.01854  -0.12225  -0.00012   0.04027
  12        2PX        -0.00991  -0.09642  -0.06443  -0.23886  -0.10168
  13        2PY        -0.07078   0.16715   0.11206  -0.13767   0.24931
  14        2PZ         0.00010  -0.00015  -0.00013  -0.00002  -0.00025
  15        3S          0.18141  -0.03941  -0.01952  -0.00001   0.03053
  16        3PX         0.01451  -0.03644  -0.08255  -0.08013  -0.05186
  17        3PY        -0.04400   0.06318   0.14321  -0.04606   0.10378
  18        3PZ         0.00005  -0.00007  -0.00012  -0.00001  -0.00012
  19 3   C  1S          0.06737   0.00952  -0.05610  -0.00004  -0.01539
  20        2S         -0.13777  -0.01850   0.12223   0.00007   0.03758
  21        2PX        -0.03855  -0.19288   0.12951   0.00030  -0.24832
  22        2PY        -0.15772  -0.00003  -0.00012   0.27559  -0.04528
  23        2PZ         0.00007  -0.00012   0.00007  -0.00012  -0.00021
  24        3S         -0.12405  -0.03937   0.01955   0.00010   0.02843
  25        3PX        -0.03099  -0.07290   0.16539   0.00017  -0.10771
  26        3PY        -0.03372   0.00001  -0.00003   0.09242  -0.00860
  27        3PZ         0.00000  -0.00004   0.00011  -0.00004  -0.00010
  28 4   C  1S          0.03127   0.00954   0.05609   0.00006   0.00115
  29        2S         -0.06395  -0.01855  -0.12222  -0.00013  -0.00281
  30        2PX        -0.18355  -0.09647  -0.06499   0.23872   0.08010
  31        2PY         0.08527  -0.16701  -0.11200  -0.13773  -0.02490
  32        2PZ        -0.00015   0.00004   0.00000   0.00022  -0.00002
  33        3S         -0.05758  -0.03942  -0.01953   0.00002  -0.00202
  34        3PX        -0.04450  -0.03646  -0.08280   0.08001   0.01747
  35        3PY         0.00908  -0.06313  -0.14315  -0.04628  -0.00092
  36        3PZ        -0.00003   0.00001   0.00003   0.00008  -0.00003
  37 5   C  1S         -0.09856   0.00954  -0.05611  -0.00002   0.01649
  38        2S          0.20154  -0.01854   0.12225   0.00004  -0.04027
  39        2PX         0.00977   0.09649  -0.06449  -0.23878  -0.10186
  40        2PY         0.07064  -0.16702   0.11203  -0.13783   0.24896
  41        2PZ        -0.00005   0.00015  -0.00015   0.00007  -0.00029
  42        3S          0.18141  -0.03943   0.01953  -0.00003  -0.03058
  43        3PX        -0.01461   0.03648  -0.08265  -0.08008  -0.05193
  44        3PY         0.04394  -0.06313   0.14317  -0.04613   0.10367
  45        3PZ        -0.00004   0.00006  -0.00015   0.00002  -0.00013
  46 6   C  1S          0.06729   0.00952   0.05609   0.00003   0.01541
  47        2S         -0.13761  -0.01851  -0.12223  -0.00007  -0.03762
  48        2PX         0.03848   0.19296   0.12948   0.00033  -0.24810
  49        2PY         0.15775  -0.00011  -0.00017   0.27560  -0.04498
  50        2PZ        -0.00009   0.00001  -0.00002  -0.00021  -0.00002
  51        3S         -0.12387  -0.03936  -0.01952   0.00004  -0.02855
  52        3PX         0.03099   0.07293   0.16538   0.00023  -0.10762
  53        3PY         0.03367  -0.00002  -0.00009   0.09242  -0.00853
  54        3PZ        -0.00002   0.00000  -0.00001  -0.00007  -0.00003
  55 7   H  1S         -0.03459  -0.11052   0.13936  -0.00003  -0.01009
  56        2S         -0.01185  -0.06419   0.05524  -0.00005  -0.00769
  57 8   H  1S          0.10932  -0.11053  -0.13920  -0.00013  -0.15021
  58        2S          0.03749  -0.06419  -0.05514  -0.00005  -0.11415
  59 9   H  1S         -0.07475  -0.11047   0.13934   0.00024  -0.13978
  60        2S         -0.02565  -0.06416   0.05524   0.00015  -0.10625
  61 10  H  1S         -0.03474  -0.11048  -0.13933   0.00005   0.01040
  62        2S         -0.01193  -0.06417  -0.05523   0.00007   0.00793
  63 11  H  1S          0.10928  -0.11048   0.13920   0.00007   0.15006
  64        2S          0.03747  -0.06417   0.05515   0.00002   0.11404
  65 12  H  1S         -0.07464  -0.11052  -0.13933  -0.00020   0.13961
  66        2S         -0.02558  -0.06418  -0.05522  -0.00011   0.10613
                          16        17        18        19        20
                           O         O         O         O         O
     Eigenvalues --    -0.58246  -0.49965  -0.48483  -0.48474  -0.33386
   1 1   C  1S         -0.01843  -0.00001   0.00289  -0.00146   0.00000
   2        2S          0.04500   0.00002  -0.00784   0.00399   0.00001
   3        2PX         0.14392   0.00008  -0.20227  -0.14728   0.00003
   4        2PY         0.26010   0.00006  -0.11322   0.20355   0.00001
   5        2PZ        -0.00014   0.21136   0.00010  -0.00002   0.10458
   6        3S          0.03411   0.00002  -0.00832   0.00418  -0.00026
   7        3PX         0.06354   0.00001  -0.11429  -0.04516  -0.00009
   8        3PY         0.11222   0.00008  -0.09985   0.11158  -0.00008
   9        3PZ        -0.00006   0.13741   0.00007  -0.00001   0.08932
  10 2   C  1S         -0.00822   0.00003  -0.00013   0.00325   0.00004
  11        2S          0.02007  -0.00007   0.00037  -0.00882  -0.00012
  12        2PX        -0.12953  -0.00017   0.21823   0.12235  -0.00012
  13        2PY         0.07829   0.00023   0.13776  -0.18782   0.00021
  14        2PZ        -0.00008   0.21137   0.00001   0.00024   0.31170
  15        3S          0.01530  -0.00007   0.00033  -0.00936   0.00013
  16        3PX        -0.04080  -0.00008   0.08875   0.08505  -0.00019
  17        3PY         0.04294   0.00009   0.05974  -0.13733   0.00033
  18        3PZ        -0.00004   0.13741   0.00001   0.00018   0.26626
  19 3   C  1S          0.01019  -0.00003  -0.00271  -0.00178  -0.00001
  20        2S         -0.02487   0.00005   0.00738   0.00480   0.00005
  21        2PX         0.16437  -0.00017  -0.18850  -0.12115  -0.00016
  22        2PY        -0.06840   0.00006  -0.13932   0.21737   0.00004
  23        2PZ         0.00016   0.21131  -0.00007  -0.00015   0.20709
  24        3S         -0.01896   0.00008   0.00774   0.00520  -0.00019
  25        3PX         0.07141  -0.00013  -0.13591  -0.08740   0.00001
  26        3PY        -0.01307   0.00007  -0.05762   0.09000   0.00010
  27        3PZ         0.00006   0.13738  -0.00006  -0.00008   0.17688
  28 4   C  1S          0.01843   0.00002   0.00287  -0.00151  -0.00001
  29        2S         -0.04499  -0.00004  -0.00781   0.00408   0.00002
  30        2PX         0.14422  -0.00016   0.20209   0.14712   0.00006
  31        2PY         0.25994   0.00011   0.11306  -0.20398  -0.00003
  32        2PZ        -0.00006   0.21129   0.00008   0.00020  -0.10489
  33        3S         -0.03410  -0.00005  -0.00823   0.00442   0.00020
  34        3PX         0.06363  -0.00010   0.11418   0.04505  -0.00001
  35        3PY         0.11219   0.00010   0.09973  -0.11188  -0.00010
  36        3PZ        -0.00002   0.13737   0.00003   0.00009  -0.08959
  37 5   C  1S          0.00819   0.00001  -0.00018   0.00324   0.00000
  38        2S         -0.02002  -0.00001   0.00048  -0.00881   0.00002
  39        2PX        -0.12989  -0.00002  -0.21798  -0.12232   0.00005
  40        2PY         0.07860   0.00025  -0.13821   0.18782  -0.00032
  41        2PZ        -0.00009   0.21134   0.00013  -0.00022  -0.31165
  42        3S         -0.01513  -0.00003   0.00056  -0.00934  -0.00017
  43        3PX        -0.04093  -0.00004  -0.08858  -0.08505   0.00001
  44        3PY         0.04305   0.00015  -0.06003   0.13735  -0.00018
  45        3PZ        -0.00005   0.13740   0.00006  -0.00015  -0.26621
  46 6   C  1S         -0.01017   0.00001  -0.00274  -0.00173   0.00001
  47        2S          0.02483  -0.00001   0.00744   0.00471  -0.00004
  48        2PX         0.16467  -0.00012   0.18877   0.12074  -0.00002
  49        2PY        -0.06860   0.00016   0.13940  -0.21728  -0.00009
  50        2PZ         0.00005   0.21136  -0.00006   0.00019  -0.20685
  51        3S          0.01880  -0.00004   0.00789   0.00498   0.00013
  52        3PX         0.07149  -0.00004   0.13610   0.08713   0.00011
  53        3PY        -0.01312   0.00011   0.05768  -0.08994  -0.00008
  54        3PZ         0.00001   0.13741  -0.00001   0.00009  -0.17668
  55 7   H  1S         -0.16730   0.00001   0.15103  -0.07790   0.00002
  56        2S         -0.12716   0.00002   0.11641  -0.06004  -0.00001
  57 8   H  1S         -0.07461  -0.00009  -0.00781   0.16975   0.00001
  58        2S         -0.05670  -0.00012  -0.00601   0.13086   0.00004
  59 9   H  1S          0.09253   0.00000  -0.14298  -0.09184  -0.00002
  60        2S          0.07031   0.00001  -0.11020  -0.07079  -0.00006
  61 10  H  1S          0.16730  -0.00003   0.15091  -0.07812   0.00005
  62        2S          0.12717  -0.00004   0.11632  -0.06023   0.00008
  63 11  H  1S          0.07494   0.00003  -0.00804   0.16975  -0.00004
  64        2S          0.05695   0.00002  -0.00621   0.13086  -0.00007
  65 12  H  1S         -0.09275   0.00006  -0.14312  -0.09163   0.00003
  66        2S         -0.07048   0.00007  -0.11031  -0.07061   0.00007
                          21        22        23        24        25
                           O         V         V         V         V
     Eigenvalues --    -0.33381   0.14561   0.14567   0.22784   0.28618
   1 1   C  1S         -0.00001  -0.00002  -0.00004   0.03742  -0.01041
   2        2S          0.00003   0.00005   0.00014  -0.04529   0.00402
   3        2PX         0.00007   0.00004   0.00007   0.05396  -0.01077
   4        2PY         0.00013   0.00015  -0.00001   0.09353  -0.06086
   5        2PZ         0.29947   0.29299  -0.11448  -0.00008   0.00004
   6        3S          0.00011   0.00000  -0.00024  -0.54826   0.29041
   7        3PX         0.00004   0.00018  -0.00025   0.15542  -0.29649
   8        3PY         0.00014   0.00003  -0.00035   0.26923  -0.04876
   9        3PZ         0.25584   0.54628  -0.21344  -0.00012  -0.00014
  10 2   C  1S          0.00001  -0.00002   0.00005   0.03740  -0.03596
  11        2S         -0.00003   0.00004  -0.00010  -0.04524   0.01366
  12        2PX        -0.00005   0.00004  -0.00014  -0.05397   0.10559
  13        2PY         0.00004  -0.00001   0.00023   0.09357  -0.17240
  14        2PZ         0.05884  -0.04714   0.31101  -0.00008   0.00021
  15        3S         -0.00008   0.00020  -0.00006  -0.54825   1.00673
  16        3PX        -0.00002   0.00028  -0.00052  -0.15518   0.28080
  17        3PY         0.00002   0.00010   0.00076   0.26925  -0.60175
  18        3PZ         0.05026  -0.08784   0.57997  -0.00036   0.00092
  19 3   C  1S          0.00002   0.00002  -0.00001   0.03742  -0.02560
  20        2S         -0.00005  -0.00003   0.00006  -0.04530   0.00971
  21        2PX         0.00021   0.00018   0.00010  -0.10800   0.14404
  22        2PY        -0.00012  -0.00007  -0.00014  -0.00002  -0.01591
  23        2PZ        -0.24031  -0.24568  -0.19649  -0.00012   0.00012
  24        3S          0.00001  -0.00032  -0.00038  -0.54829   0.71688
  25        3PX         0.00010   0.00035   0.00048  -0.31093   0.47138
  26        3PY        -0.00007   0.00002  -0.00026   0.00000   0.17424
  27        3PZ        -0.20532  -0.45796  -0.36650  -0.00022   0.00008
  28 4   C  1S         -0.00001   0.00001  -0.00003   0.03741   0.01028
  29        2S          0.00003  -0.00001   0.00006  -0.04526  -0.00386
  30        2PX         0.00016  -0.00018   0.00005  -0.05402  -0.01081
  31        2PY        -0.00016   0.00015  -0.00008  -0.09352  -0.06089
  32        2PZ        -0.29940   0.29297  -0.11466   0.00005  -0.00004
  33        3S         -0.00008   0.00005   0.00033  -0.54837  -0.28839
  34        3PX         0.00017  -0.00053   0.00015  -0.15557  -0.29604
  35        3PY        -0.00009   0.00025  -0.00023  -0.26901  -0.04852
  36        3PZ        -0.25578   0.54616  -0.21390   0.00003  -0.00032
  37 5   C  1S          0.00000  -0.00002   0.00001   0.03741   0.03601
  38        2S          0.00000   0.00008   0.00001  -0.04527  -0.01373
  39        2PX         0.00001   0.00005  -0.00007   0.05407   0.10558
  40        2PY        -0.00008  -0.00007   0.00029  -0.09356  -0.17245
  41        2PZ        -0.05920  -0.04739   0.31099   0.00007   0.00022
  42        3S          0.00012  -0.00010  -0.00026  -0.54824  -1.00736
  43        3PX         0.00006  -0.00025  -0.00011   0.15553   0.28090
  44        3PY        -0.00010  -0.00003   0.00070  -0.26925  -0.60192
  45        3PZ        -0.05059  -0.08838   0.57990   0.00030   0.00071
  46 6   C  1S         -0.00002   0.00002   0.00001   0.03741   0.02567
  47        2S          0.00005  -0.00006  -0.00001  -0.04528  -0.00980
  48        2PX         0.00001   0.00000   0.00001   0.10799   0.14394
  49        2PY         0.00022  -0.00020  -0.00011  -0.00004  -0.01583
  50        2PZ         0.24049  -0.24575  -0.19637   0.00006  -0.00001
  51        3S          0.00001   0.00001   0.00018  -0.54840  -0.71797
  52        3PX        -0.00006   0.00022   0.00024   0.31083   0.47148
  53        3PY         0.00018  -0.00058  -0.00011  -0.00014   0.17486
  54        3PZ         0.20545  -0.45821  -0.36614   0.00007  -0.00010
  55 7   H  1S          0.00000  -0.00003  -0.00002   0.04058  -0.00447
  56        2S          0.00000  -0.00015  -0.00025   0.77437  -0.36537
  57 8   H  1S         -0.00002  -0.00004   0.00010   0.04058  -0.01561
  58        2S         -0.00003  -0.00013   0.00044   0.77425  -1.26863
  59 9   H  1S          0.00003   0.00002   0.00000   0.04059  -0.01114
  60        2S          0.00006   0.00006  -0.00012   0.77442  -0.90386
  61 10  H  1S          0.00000   0.00002  -0.00005   0.04059   0.00452
  62        2S         -0.00001   0.00009  -0.00018   0.77429   0.36427
  63 11  H  1S         -0.00002  -0.00001  -0.00001   0.04060   0.01561
  64        2S         -0.00001  -0.00014  -0.00009   0.77442   1.26901
  65 12  H  1S         -0.00001   0.00004   0.00001   0.04058   0.01110
  66        2S         -0.00003   0.00022   0.00009   0.77439   0.90422
                          26        27        28        29        30
                           V         V         V         V         V
     Eigenvalues --     0.28619   0.32766   0.32768   0.33168   0.36127
   1 1   C  1S         -0.03557  -0.07381   0.02966  -0.04740  -0.00002
   2        2S          0.01352   0.08240  -0.03314   0.13520   0.00003
   3        2PX        -0.10526  -0.02877   0.06809  -0.02963  -0.00018
   4        2PY        -0.16996  -0.09519   0.00553  -0.05137   0.00017
   5        2PZ         0.00007   0.00002  -0.00008  -0.00019   0.24053
   6        3S          0.99564   1.42417  -0.57176  -0.45194  -0.00025
   7        3PX        -0.26885  -0.19316   0.47414  -0.74220  -0.00073
   8        3PY        -0.60024  -0.65260   0.03310  -1.28661  -0.00036
   9        3PZ         0.00019   0.00045   0.00010   0.00028   0.68315
  10 2   C  1S         -0.00889   0.06258   0.04934   0.04716   0.00005
  11        2S          0.00343  -0.06980  -0.05560  -0.13493  -0.00019
  12        2PX         0.00635  -0.00862  -0.07360  -0.02917  -0.00003
  13        2PY        -0.05356   0.08985   0.03221   0.05130  -0.00010
  14        2PZ         0.00008  -0.00018  -0.00002   0.00001  -0.24052
  15        3S          0.24825  -1.20892  -0.94335   0.45710  -0.00015
  16        3PX         0.28486  -0.05274  -0.51346  -0.73878  -0.00080
  17        3PY        -0.02316   0.61640   0.22189   1.28599   0.00042
  18        3PZ         0.00031  -0.00093  -0.00046  -0.00073  -0.68315
  19 3   C  1S          0.02680   0.01153  -0.07914  -0.04667  -0.00008
  20        2S         -0.01025  -0.01339   0.08906   0.13440   0.00001
  21        2PX        -0.15021  -0.01517   0.10373   0.05833  -0.00009
  22        2PY        -0.01515  -0.06005  -0.00841  -0.00024   0.00020
  23        2PZ        -0.00009   0.00001  -0.00009  -0.00017   0.24048
  24        3S         -0.74945  -0.21405   1.51516  -0.46587   0.00136
  25        3PX        -0.49193  -0.11032   0.71801   1.47844   0.00051
  26        3PY         0.16772  -0.42086  -0.05909  -0.00145   0.00048
  27        3PZ        -0.00032   0.00027   0.00010   0.00065   0.68296
  28 4   C  1S          0.03560  -0.07434   0.02993   0.04644   0.00004
  29        2S         -0.01357   0.08395  -0.03379  -0.13414  -0.00012
  30        2PX        -0.10518   0.02921  -0.06841  -0.02908  -0.00005
  31        2PY        -0.17000   0.09562  -0.00584  -0.05020  -0.00013
  32        2PZ         0.00002   0.00007   0.00010   0.00017  -0.24047
  33        3S         -0.99600   1.41808  -0.57150   0.47052   0.00003
  34        3PX        -0.26861   0.20267  -0.47802  -0.73896  -0.00099
  35        3PY        -0.60040   0.66602  -0.03913  -1.27776  -0.00092
  36        3PZ         0.00004   0.00005   0.00009   0.00083  -0.68288
  37 5   C  1S          0.00876   0.06308   0.04916  -0.04667   0.00002
  38        2S         -0.00327  -0.07133  -0.05500   0.13441   0.00006
  39        2PX         0.00636   0.00898   0.07362  -0.02946  -0.00016
  40        2PY        -0.05360  -0.09025  -0.03200   0.05037   0.00021
  41        2PZ         0.00005   0.00001  -0.00008  -0.00026   0.24050
  42        3S         -0.24622  -1.20196  -0.94661  -0.46666  -0.00151
  43        3PX         0.28449   0.06192   0.51105  -0.74192  -0.00079
  44        3PY        -0.02288  -0.62983  -0.21563   1.27881   0.00142
  45        3PZ         0.00019   0.00016   0.00008  -0.00176   0.68305
  46 6   C  1S         -0.02671   0.01094  -0.07894   0.04716   0.00002
  47        2S          0.01011  -0.01183   0.08844  -0.13493  -0.00005
  48        2PX        -0.15024   0.01431  -0.10355   0.05901   0.00004
  49        2PY        -0.01522   0.05999   0.00861   0.00027  -0.00010
  50        2PZ         0.00000   0.00002   0.00004   0.00027  -0.24052
  51        3S          0.74809  -0.21709   1.51810   0.45651   0.00042
  52        3PX        -0.49166   0.09299  -0.71171   1.48317   0.00099
  53        3PY         0.16732   0.42055   0.06036   0.00162  -0.00008
  54        3PZ        -0.00023  -0.00010  -0.00014   0.00067  -0.68313
  55 7   H  1S         -0.01541   0.01058  -0.00425  -0.02515  -0.00004
  56        2S         -1.25460  -1.27506   0.51198  -1.32490  -0.00086
  57 8   H  1S         -0.00380  -0.00902  -0.00686   0.02520  -0.00012
  58        2S         -0.31183   1.08072   0.85523   1.32056   0.00169
  59 9   H  1S          0.01156  -0.00142   0.01107  -0.02528   0.00000
  60        2S          0.94356   0.20273  -1.37081  -1.31200  -0.00125
  61 10  H  1S          0.01541   0.01028  -0.00415   0.02531  -0.00006
  62        2S          1.25470  -1.28922   0.51929   1.30766   0.00123
  63 11  H  1S          0.00386  -0.00868  -0.00700  -0.02528  -0.00006
  64        2S          0.31071   1.09426   0.84993  -1.31172  -0.00062
  65 12  H  1S         -0.01159  -0.00172   0.01120   0.02520   0.00002
  66        2S         -0.94289   0.18629  -1.36559   1.32082   0.00064
                          31        32        33        34        35
                           V         V         V         V         V
     Eigenvalues --     0.46880   0.46886   0.49660   0.49667   0.68105
   1 1   C  1S         -0.06940   0.03394  -0.02377  -0.04440   0.00003
   2        2S          0.05126  -0.02501   0.00668   0.01229   0.00071
   3        2PX         0.09487  -0.03592  -0.17110   0.11470  -0.30740
   4        2PY         0.15352  -0.08074   0.12236  -0.02297   0.17784
   5        2PZ        -0.00005   0.00006  -0.00013   0.00006  -0.00008
   6        3S          2.07993  -1.01861   1.04696   1.95944  -0.00216
   7        3PX         0.42332  -1.14643  -1.68577   1.04721   0.46106
   8        3PY         1.57547  -0.22414   1.13128  -0.32079  -0.26777
   9        3PZ        -0.00083   0.00025  -0.00095   0.00021   0.00022
  10 2   C  1S          0.00567  -0.07708  -0.05026  -0.00206  -0.00004
  11        2S         -0.00413   0.05692   0.01393   0.00063   0.00086
  12        2PX        -0.00203  -0.10130  -0.02901   0.20405   0.30750
  13        2PY        -0.01768   0.17266   0.03228   0.12003   0.17781
  14        2PZ         0.00001  -0.00020   0.00002  -0.00006   0.00003
  15        3S         -0.17169   2.31156   2.21755   0.09035   0.00106
  16        3PX         0.90607  -0.81870  -0.20924   1.97449  -0.46204
  17        3PY         0.37948   1.54663   0.20149   1.15702  -0.26564
  18        3PZ        -0.00012  -0.00084   0.00068  -0.00016   0.00001
  19 3   C  1S          0.06414   0.04319  -0.02648   0.04272   0.00004
  20        2S         -0.04736  -0.03186   0.00722  -0.01190   0.00102
  21        2PX         0.16639   0.11231  -0.02203   0.03622  -0.00035
  22        2PY         0.00494  -0.00923   0.20080   0.12580  -0.35508
  23        2PZ         0.00016   0.00013  -0.00020   0.00002   0.00017
  24        3S         -1.92294  -1.29481   1.16937  -1.88459  -0.00185
  25        3PX         1.45234   0.98205  -0.14234   0.23995   0.00154
  26        3PY        -0.55462   0.80629   1.93591   1.22000   0.53334
  27        3PZ         0.00150   0.00049  -0.00162   0.00020  -0.00030
  28 4   C  1S         -0.06963   0.03369   0.02325   0.04453  -0.00003
  29        2S          0.05138  -0.02486  -0.00636  -0.01239   0.00101
  30        2PX        -0.09354   0.03545  -0.17185   0.11458  -0.30765
  31        2PY        -0.15452   0.08088   0.12156  -0.02267   0.17736
  32        2PZ         0.00000  -0.00002  -0.00005   0.00002  -0.00029
  33        3S          2.08763  -1.00916  -1.02687  -1.96453   0.00088
  34        3PX        -0.41218   1.14359  -1.68769   1.05376   0.46036
  35        3PY        -1.58240   0.22550   1.11843  -0.32082  -0.26666
  36        3PZ         0.00072   0.00007  -0.00122   0.00034   0.00035
  37 5   C  1S          0.00528  -0.07714   0.05025   0.00167   0.00002
  38        2S         -0.00396   0.05694  -0.01392  -0.00040   0.00080
  39        2PX         0.00206   0.10022  -0.02874   0.20446   0.30768
  40        2PY         0.01749  -0.17333   0.03235   0.11942   0.17738
  41        2PZ        -0.00001   0.00027  -0.00013  -0.00002  -0.00008
  42        3S         -0.15630   2.31351  -2.21700  -0.07492  -0.00208
  43        3PX        -0.90631   0.81032  -0.21702   1.97798  -0.46277
  44        3PY        -0.38064  -1.55150   0.19651   1.14850  -0.26599
  45        3PZ         0.00017   0.00180  -0.00078  -0.00036   0.00008
  46 6   C  1S          0.06394   0.04339   0.02702  -0.04245  -0.00003
  47        2S         -0.04723  -0.03200  -0.00758   0.01172   0.00072
  48        2PX        -0.16623  -0.11244  -0.02315   0.03570   0.00031
  49        2PY        -0.00672   0.00834   0.20055   0.12607  -0.35516
  50        2PZ         0.00001   0.00000  -0.00006  -0.00012   0.00027
  51        3S         -1.91658  -1.30174  -1.19006   1.87428   0.00053
  52        3PX        -1.45218  -0.98201  -0.15498   0.23357   0.00063
  53        3PY         0.54064  -0.81318   1.94025   1.21543   0.53254
  54        3PZ        -0.00028   0.00048  -0.00093  -0.00120  -0.00036
  55 7   H  1S          0.01034  -0.00551   0.06523   0.12320  -0.00009
  56        2S          0.89493  -0.43486  -0.03611  -0.07476  -0.00014
  57 8   H  1S         -0.00143   0.01171   0.13929   0.00519  -0.00002
  58        2S         -0.06923   0.99245  -0.08391  -0.00069   0.00041
  59 9   H  1S         -0.01003  -0.00630   0.07403  -0.11813   0.00009
  60        2S         -0.82382  -0.55769  -0.04775   0.06953  -0.00025
  61 10  H  1S          0.01093  -0.00472  -0.06514  -0.12325   0.00010
  62        2S          0.89401  -0.43633   0.04238   0.07307   0.00025
  63 11  H  1S         -0.00022   0.01186  -0.13931  -0.00518   0.00001
  64        2S         -0.07132   0.99206   0.08425   0.00570  -0.00017
  65 12  H  1S         -0.00951  -0.00690  -0.07419   0.11802  -0.00011
  66        2S         -0.82470  -0.55667   0.04132  -0.07264   0.00043
                          36        37        38        39        40
                           V         V         V         V         V
     Eigenvalues --     0.75363   0.77039   0.77170   0.78171   0.84025
   1 1   C  1S         -0.00024   0.11810  -0.00670  -0.00467  -0.00854
   2        2S          0.00004  -0.07574   0.00408   0.53284  -0.38200
   3        2PX         0.00004  -0.06709  -0.19022   0.12479   0.05398
   4        2PY         0.00034  -0.09083   0.11689   0.21479   0.09343
   5        2PZ         0.43265   0.00100   0.00010   0.00005  -0.00043
   6        3S          0.00971  -4.52328   0.25906  -0.37912   0.54215
   7        3PX         0.00367  -1.87978  -3.34865  -0.10181  -0.14794
   8        3PY         0.00608  -2.80744   2.15501  -0.16969  -0.25292
   9        3PZ        -0.30083   0.00088  -0.00074  -0.00002   0.00044
  10 2   C  1S          0.00027  -0.11810   0.00672  -0.00479  -0.00849
  11        2S         -0.00043   0.07511  -0.00435   0.53296  -0.38197
  12        2PX        -0.00002  -0.06689  -0.18987  -0.12486  -0.05381
  13        2PY         0.00006   0.09051  -0.11694   0.21476   0.09334
  14        2PZ         0.43264  -0.00024  -0.00013  -0.00029   0.00257
  15        3S         -0.00955   4.52481  -0.26020  -0.37208   0.54286
  16        3PX         0.00368  -1.87922  -3.34967   0.09499   0.14450
  17        3PY        -0.00637   2.80808  -2.15534  -0.16773  -0.25428
  18        3PZ        -0.30088  -0.00089  -0.00015   0.00013  -0.00223
  19 3   C  1S         -0.00025   0.11816  -0.00672  -0.00466  -0.00852
  20        2S          0.00015  -0.07589   0.00413   0.53265  -0.38208
  21        2PX        -0.00039   0.11238  -0.00608  -0.24838  -0.10786
  22        2PY         0.00022  -0.01316  -0.22315   0.00014  -0.00066
  23        2PZ         0.43257   0.00032  -0.00001   0.00018   0.00175
  24        3S          0.00963  -4.52212   0.26394  -0.37927   0.54210
  25        3PX        -0.00709   3.37083  -0.19357   0.19810   0.29308
  26        3PY        -0.00015  -0.22311  -3.97625  -0.00285  -0.00115
  27        3PZ        -0.30078   0.00221   0.00164  -0.00001  -0.00142
  28 4   C  1S          0.00025  -0.11817   0.00675  -0.00489  -0.00858
  29        2S         -0.00028   0.07498  -0.00443   0.53274  -0.38200
  30        2PX        -0.00005  -0.04468   0.19657  -0.12389  -0.05432
  31        2PY         0.00047  -0.10351  -0.10614  -0.21555  -0.09334
  32        2PZ         0.43255   0.00090   0.00038   0.00014   0.00050
  33        3S         -0.00959   4.52217  -0.26267  -0.37116   0.54333
  34        3PX         0.00364  -1.49248   3.53941   0.09762   0.14805
  35        3PY         0.00597  -3.03073  -1.82092   0.16531   0.25207
  36        3PZ        -0.30071   0.00099   0.00310  -0.00012  -0.00043
  37 5   C  1S         -0.00024   0.11815  -0.00674  -0.00460  -0.00846
  38        2S         -0.00007  -0.07599   0.00402   0.53275  -0.38198
  39        2PX        -0.00005  -0.04547   0.19628   0.12359   0.05388
  40        2PY         0.00026   0.10348   0.10628  -0.21528  -0.09324
  41        2PZ         0.43261   0.00155  -0.00025   0.00022  -0.00177
  42        3S          0.00977  -4.52393   0.25922  -0.37977   0.54199
  43        3PX         0.00367  -1.49118   3.54092  -0.09646  -0.14539
  44        3PY        -0.00648   3.03159   1.82234   0.17348   0.25421
  45        3PZ        -0.30085  -0.00433  -0.00084  -0.00025   0.00133
  46 6   C  1S          0.00024  -0.11810   0.00672  -0.00485  -0.00854
  47        2S         -0.00013   0.07500  -0.00454   0.53296  -0.38197
  48        2PX        -0.00032   0.11180  -0.00646   0.24856   0.10789
  49        2PY         0.00029   0.01303   0.22293   0.00092   0.00023
  50        2PZ         0.43264   0.00193  -0.00039   0.00029  -0.00243
  51        3S         -0.00963   4.52407  -0.25890  -0.37171   0.54274
  52        3PX        -0.00697   3.37164  -0.19149  -0.19240  -0.29261
  53        3PY        -0.00022   0.22375   3.97782   0.00151   0.00139
  54        3PZ        -0.30084  -0.00191  -0.00285  -0.00015   0.00239
  55 7   H  1S         -0.00026   0.16210  -0.00905  -0.09622  -0.38626
  56        2S          0.00258  -1.26510   0.07172   0.13673  -0.07190
  57 8   H  1S          0.00041  -0.16172   0.00951  -0.09633  -0.38604
  58        2S         -0.00263   1.26459  -0.07210   0.13861  -0.07173
  59 9   H  1S         -0.00023   0.16228  -0.00891  -0.09623  -0.38621
  60        2S          0.00262  -1.26513   0.07202   0.13657  -0.07191
  61 10  H  1S          0.00038  -0.16213   0.00949  -0.09658  -0.38631
  62        2S         -0.00261   1.26471  -0.07235   0.13893  -0.07160
  63 11  H  1S         -0.00028   0.16215  -0.00930  -0.09605  -0.38596
  64        2S          0.00254  -1.26486   0.07203   0.13644  -0.07176
  65 12  H  1S          0.00034  -0.16180   0.00938  -0.09647  -0.38624
  66        2S         -0.00258   1.26487  -0.07195   0.13876  -0.07178
                          41        42        43        44        45
                           V         V         V         V         V
     Eigenvalues --     0.84427   0.84430   0.87365   0.87376   0.89668
   1 1   C  1S          0.00021  -0.00013  -0.07561  -0.02776   0.01199
   2        2S          0.00149  -0.00083   0.00922  -0.00155   0.18645
   3        2PX        -0.00011   0.00046  -0.06867   0.50639   0.41737
   4        2PY        -0.00071   0.00042   0.26790  -0.20958  -0.24552
   5        2PZ         0.21668   0.59402  -0.00027  -0.00041   0.00059
   6        3S         -0.00716   0.00349   0.38086   0.14277  -0.25145
   7        3PX        -0.00167   0.00017   0.27892  -0.32579  -0.15605
   8        3PY        -0.00181   0.00105   0.17166   0.30874   0.09948
   9        3PZ        -0.20342  -0.55834  -0.00003   0.00061  -0.00073
  10 2   C  1S         -0.00008   0.00009   0.01439   0.07925   0.03872
  11        2S          0.00170  -0.00055   0.00338  -0.00873   0.63323
  12        2PX        -0.00051   0.00033   0.51093   0.01962   0.10071
  13        2PY         0.00047   0.00045   0.25230  -0.22807   0.04906
  14        2PZ         0.62282   0.10872   0.00022  -0.00004  -0.00105
  15        3S          0.00302  -0.00126  -0.07780  -0.39843  -0.84777
  16        3PX        -0.00167   0.00082  -0.36644   0.21586  -0.04946
  17        3PY         0.00310  -0.00233  -0.27426  -0.22171   0.00686
  18        3PZ        -0.58529  -0.10189  -0.00037  -0.00014   0.00103
  19 3   C  1S          0.00019  -0.00004   0.06175  -0.05160   0.02686
  20        2S          0.00097  -0.00006  -0.00295   0.00821   0.44678
  21        2PX         0.00047   0.00002   0.16118  -0.13512   0.00445
  22        2PY        -0.00036  -0.00045  -0.37445  -0.43946  -0.36326
  23        2PZ         0.40620  -0.48470  -0.00008   0.00016   0.00078
  24        3S         -0.00675   0.00226  -0.30973   0.25758  -0.59360
  25        3PX         0.00279  -0.00119   0.23043  -0.19662  -0.02459
  26        3PY         0.00050   0.00037   0.30128   0.35045   0.14014
  27        3PZ        -0.38197   0.45527   0.00056  -0.00034  -0.00073
  28 4   C  1S         -0.00020   0.00003  -0.07570  -0.02721  -0.01081
  29        2S          0.00136  -0.00045   0.00537   0.00685  -0.18662
  30        2PX        -0.00003   0.00061   0.07508  -0.50460   0.41606
  31        2PY         0.00015  -0.00050  -0.27161   0.20886  -0.24128
  32        2PZ        -0.21732  -0.59392   0.00069  -0.00065   0.00077
  33        3S          0.00351  -0.00123   0.37871   0.13329   0.24476
  34        3PX        -0.00270   0.00037  -0.28219   0.32434  -0.15470
  35        3PY        -0.00471   0.00166  -0.16452  -0.30777   0.10344
  36        3PZ         0.20452   0.55802  -0.00045   0.00090  -0.00057
  37 5   C  1S          0.00024  -0.00008   0.01366   0.07933  -0.03893
  38        2S          0.00098  -0.00082  -0.00607  -0.00672  -0.63316
  39        2PX        -0.00043   0.00029  -0.50991  -0.01360   0.10875
  40        2PY        -0.00004  -0.00034  -0.25220   0.23157   0.05313
  41        2PZ        -0.62277  -0.10942   0.00046   0.00054   0.00005
  42        3S         -0.00751   0.00295  -0.06297  -0.39907   0.84871
  43        3PX        -0.00152   0.00052   0.36734  -0.22060  -0.05780
  44        3PY         0.00355  -0.00034   0.27117   0.21781   0.00104
  45        3PZ         0.58514   0.10306  -0.00069  -0.00118  -0.00004
  46 6   C  1S         -0.00016   0.00004   0.06154  -0.05195  -0.02784
  47        2S          0.00182  -0.00125  -0.00894   0.00172  -0.44676
  48        2PX        -0.00002  -0.00004  -0.16116   0.13519   0.00698
  49        2PY        -0.00020   0.00057   0.36799   0.44435  -0.36920
  50        2PZ        -0.40564   0.48502  -0.00082  -0.00013  -0.00029
  51        3S          0.00303  -0.00056  -0.30965   0.26275   0.59936
  52        3PX         0.00514  -0.00199  -0.23503   0.19526  -0.02135
  53        3PY         0.00031  -0.00032  -0.29562  -0.35465   0.14133
  54        3PZ         0.38103  -0.45594   0.00103  -0.00001   0.00053
  55 7   H  1S          0.00187  -0.00101  -0.25891  -0.09621   0.09281
  56        2S         -0.00118   0.00055   0.18728   0.06699   0.03658
  57 8   H  1S          0.00126  -0.00036   0.05079   0.27208   0.30774
  58        2S          0.00167  -0.00086  -0.03421  -0.19539   0.12749
  59 9   H  1S          0.00168  -0.00057   0.21313  -0.17614   0.21562
  60        2S         -0.00137   0.00059  -0.15025   0.12835   0.09127
  61 10  H  1S          0.00079  -0.00053  -0.26058  -0.09209  -0.08859
  62        2S          0.00211  -0.00053   0.18500   0.06848  -0.03920
  63 11  H  1S          0.00185  -0.00088   0.04578   0.27309  -0.30857
  64        2S         -0.00163   0.00035  -0.03467  -0.19480  -0.12675
  65 12  H  1S          0.00102  -0.00068   0.21051  -0.17905  -0.21908
  66        2S          0.00212  -0.00094  -0.15299   0.12651  -0.08930
                          46        47        48        49        50
                           V         V         V         V         V
     Eigenvalues --     0.89674   0.91503   0.91506   0.99065   1.12348
   1 1   C  1S          0.03807  -0.00004  -0.00014  -0.00002   0.02252
   2        2S          0.62363  -0.00001  -0.00072  -0.00015  -0.24244
   3        2PX        -0.12544  -0.00019   0.00005  -0.00055   0.31614
   4        2PY         0.06347  -0.00011   0.00045   0.00076   0.56588
   5        2PZ         0.00021  -0.62454   0.22212   0.47759  -0.00027
   6        3S         -0.83362   0.00053   0.00128  -0.00039  -0.00143
   7        3PX         0.06090  -0.00079   0.00070   0.00052  -1.07080
   8        3PY         0.00173   0.00130  -0.00055  -0.00175  -1.90873
   9        3PZ        -0.00020   0.92917  -0.33067  -1.10633   0.00122
  10 2   C  1S          0.00978   0.00000   0.00001  -0.00006  -0.01867
  11        2S          0.15007   0.00012  -0.00081  -0.00041   0.20097
  12        2PX        -0.42371   0.00007   0.00095   0.00014   0.25417
  13        2PY        -0.24850   0.00029  -0.00061  -0.00066  -0.47364
  14        2PZ        -0.00050   0.11907  -0.65212  -0.47762   0.00079
  15        3S         -0.20514  -0.00035   0.00014   0.00076   0.00051
  16        3PX         0.16003  -0.00105  -0.00039  -0.00082  -0.86419
  17        3PY         0.09816  -0.00123   0.00087   0.00196   1.59485
  18        3PZ         0.00051  -0.17731   0.97032   1.10635  -0.00199
  19 3   C  1S         -0.02944   0.00005  -0.00004  -0.00005  -0.00382
  20        2S         -0.47331   0.00010  -0.00032  -0.00043   0.04103
  21        2PX        -0.00712  -0.00018  -0.00035  -0.00048   0.11336
  22        2PY        -0.34870  -0.00004   0.00036   0.00058   0.02603
  23        2PZ        -0.00023   0.50472   0.42985   0.47740   0.00004
  24        3S          0.63711  -0.00004   0.00075  -0.00064   0.00982
  25        3PX         0.02114   0.00036   0.00027   0.00175  -0.38632
  26        3PY         0.13396  -0.00142  -0.00001  -0.00103  -0.07542
  27        3PZ         0.00024  -0.75118  -0.63946  -1.10597   0.00003
  28 4   C  1S         -0.03830  -0.00002   0.00000   0.00000   0.02245
  29        2S         -0.62364  -0.00020  -0.00001  -0.00023  -0.24310
  30        2PX        -0.13271   0.00103  -0.00051  -0.00008  -0.31818
  31        2PY         0.06709  -0.00062   0.00021   0.00006  -0.57011
  32        2PZ        -0.00007  -0.62441   0.22288  -0.47732  -0.00009
  33        3S          0.83453  -0.00011  -0.00050   0.00089  -0.01689
  34        3PX         0.06655   0.00011   0.00041  -0.00033   1.08088
  35        3PY        -0.00240   0.00001   0.00054  -0.00016   1.92836
  36        3PZ         0.00006   0.92922  -0.33148   1.10583  -0.00024
  37 5   C  1S         -0.00869  -0.00008   0.00002   0.00001  -0.01862
  38        2S         -0.15041  -0.00040   0.00016   0.00011   0.20229
  39        2PX        -0.42299  -0.00007   0.00000  -0.00037  -0.25653
  40        2PY        -0.24478  -0.00015  -0.00054   0.00007   0.47802
  41        2PZ        -0.00009   0.12004  -0.65197   0.47752  -0.00053
  42        3S          0.19951   0.00067   0.00062  -0.00017   0.01433
  43        3PX         0.15747   0.00153  -0.00025   0.00044   0.87532
  44        3PY         0.10036   0.00072   0.00009  -0.00016  -1.61464
  45        3PZ         0.00029  -0.17850   0.97020  -1.10616   0.00145
  46 6   C  1S          0.02861   0.00006   0.00004   0.00007  -0.00386
  47        2S          0.47331  -0.00040  -0.00042  -0.00005   0.04176
  48        2PX        -0.00510  -0.00027  -0.00016   0.00008  -0.10847
  49        2PY        -0.34300   0.00025   0.00103  -0.00011  -0.02610
  50        2PZ         0.00107   0.50507   0.42935  -0.47757  -0.00003
  51        3S         -0.63259   0.00010  -0.00015   0.00100  -0.00693
  52        3PX         0.02413  -0.00025  -0.00060  -0.00037   0.36358
  53        3PY         0.13036   0.00100  -0.00164   0.00048   0.07602
  54        3PZ        -0.00102  -0.75135  -0.63901   1.10628   0.00003
  55 7   H  1S          0.30298  -0.00018  -0.00080  -0.00024   0.29775
  56        2S          0.12618   0.00021   0.00012  -0.00021  -1.52002
  57 8   H  1S          0.07515  -0.00004  -0.00016  -0.00021  -0.24695
  58        2S          0.02884  -0.00015  -0.00018   0.00039   1.25985
  59 9   H  1S         -0.23183   0.00023  -0.00029  -0.00042  -0.05105
  60        2S         -0.09408   0.00002   0.00011  -0.00040   0.26520
  61 10  H  1S         -0.30380  -0.00016  -0.00012  -0.00003   0.29817
  62        2S         -0.12561   0.00002  -0.00034   0.00009  -1.52976
  63 11  H  1S         -0.07112  -0.00046   0.00008  -0.00007  -0.24752
  64        2S         -0.03111   0.00006   0.00033  -0.00009   1.27030
  65 12  H  1S          0.22891   0.00011  -0.00004   0.00016  -0.05070
  66        2S          0.09604  -0.00031  -0.00044  -0.00030   0.25495
                          51        52        53        54        55
                           V         V         V         V         V
     Eigenvalues --     1.12350   1.13100   1.15350   1.15355   1.22999
   1 1   C  1S         -0.00855  -0.00524  -0.01165  -0.02595  -0.00787
   2        2S          0.09255  -0.05781   0.27610   0.61519   0.40439
   3        2PX        -0.14454   0.28361  -0.25227  -0.17928  -0.19331
   4        2PY        -0.20108   0.49080  -0.10714  -0.45858  -0.33465
   5        2PZ         0.00003  -0.00035  -0.00007   0.00028   0.00016
   6        3S          0.00058  -1.84585  -0.80836  -1.80509  -0.76261
   7        3PX         0.47801  -1.36016   0.95761   0.17411   0.23662
   8        3PY         0.68506  -2.35174  -0.02942   1.05990   0.40951
   9        3PZ         0.00020   0.00174   0.00050  -0.00059  -0.00019
  10 2   C  1S         -0.01514   0.00526  -0.02833  -0.00289  -0.00787
  11        2S          0.16397   0.05823   0.67108   0.06815   0.40436
  12        2PX         0.23783   0.28294   0.24958   0.18269   0.19306
  13        2PY        -0.37071  -0.48975  -0.46886   0.04320  -0.33461
  14        2PZ         0.00061   0.00091   0.00081   0.00005   0.00042
  15        3S          0.00988   1.84368  -1.97003  -0.20060  -0.76189
  16        3PX        -0.79705  -1.35785  -0.46659  -0.85317  -0.23632
  17        3PY         1.25958   2.34772   0.99530  -0.36435   0.40962
  18        3PZ        -0.00167  -0.00265  -0.00188  -0.00011  -0.00057
  19 3   C  1S          0.02375  -0.00538  -0.01660   0.02307  -0.00786
  20        2S         -0.25710  -0.05603   0.39461  -0.54690   0.40416
  21        2PX        -0.68834  -0.56206   0.31202  -0.43256   0.38617
  22        2PY         0.00442   0.00075   0.14661   0.10574  -0.00001
  23        2PZ        -0.00050  -0.00037   0.00000  -0.00025   0.00020
  24        3S         -0.01132  -1.84580  -1.15672   1.60483  -0.76213
  25        3PX         2.32807   2.70042  -0.64431   0.89233  -0.47232
  26        3PY        -0.01321  -0.00438  -0.75148  -0.54156  -0.00019
  27        3PZ         0.00171   0.00228   0.00049   0.00045  -0.00026
  28 4   C  1S         -0.00857   0.00544   0.01163   0.02595  -0.00786
  29        2S          0.09236   0.05511  -0.27647  -0.61534   0.40415
  30        2PX         0.14585   0.27976  -0.25227  -0.17942   0.19320
  31        2PY         0.20308   0.48541  -0.10719  -0.45863   0.33454
  32        2PZ        -0.00002   0.00003  -0.00007  -0.00001  -0.00007
  33        3S          0.00625   1.84673   0.80925   1.80543  -0.76122
  34        3PX        -0.48332  -1.34457   0.95860   0.17406  -0.23651
  35        3PY        -0.69319  -2.33506  -0.03025   1.05959  -0.41011
  36        3PZ         0.00003   0.00033   0.00047  -0.00011   0.00006
  37 5   C  1S         -0.01523  -0.00537   0.02828   0.00290  -0.00786
  38        2S          0.16443  -0.05712  -0.67074  -0.06856   0.40392
  39        2PX        -0.23744   0.28106   0.24897   0.18287  -0.19294
  40        2PY         0.37022  -0.48726  -0.46803   0.04294   0.33420
  41        2PZ        -0.00047   0.00029   0.00034   0.00006  -0.00030
  42        3S          0.00194  -1.84375   1.97025   0.20119  -0.76148
  43        3PX         0.79357  -1.34895  -0.46384  -0.85412   0.23590
  44        3PY        -1.25434   2.34019   0.99205  -0.36369  -0.40805
  45        3PZ         0.00158  -0.00187  -0.00065  -0.00011   0.00040
  46 6   C  1S          0.02374   0.00530   0.01668  -0.02306  -0.00787
  47        2S         -0.25597   0.05715  -0.39503   0.54685   0.40425
  48        2PX         0.68595  -0.56510   0.31342  -0.43247  -0.38651
  49        2PY        -0.00416  -0.00025   0.14642   0.10584   0.00015
  50        2PZ         0.00009  -0.00024   0.00001  -0.00017  -0.00012
  51        3S         -0.00746   1.84581   1.15636  -1.60477  -0.76122
  52        3PX        -2.31856   2.71104  -0.64919   0.89259   0.47372
  53        3PY         0.01271   0.00202  -0.74984  -0.54234  -0.00033
  54        3PZ        -0.00042   0.00016   0.00017   0.00070   0.00016
  55 7   H  1S         -0.11317   0.04474  -0.14434  -0.32154  -0.35941
  56        2S          0.57787  -1.22664   0.53134   1.18192   0.77106
  57 8   H  1S         -0.20104  -0.04429  -0.35088  -0.03568  -0.35933
  58        2S          1.03105   1.22382   1.28898   0.13076   0.77082
  59 9   H  1S          0.31510   0.04265  -0.20594   0.28591  -0.35917
  60        2S         -1.61345  -1.21535   0.75757  -1.05007   0.77034
  61 10  H  1S         -0.11370  -0.04182   0.14434   0.32167  -0.35910
  62        2S          0.58303   1.21105  -0.53166  -1.18186   0.77078
  63 11  H  1S         -0.20175   0.04294   0.35051   0.03586  -0.35917
  64        2S          1.02989  -1.21626  -1.28624  -0.13194   0.76972
  65 12  H  1S          0.31442  -0.04393   0.20666  -0.28576  -0.35935
  66        2S         -1.60827   1.22261  -0.76074   1.05022   0.77120
                          56        57        58        59        60
                           V         V         V         V         V
     Eigenvalues --     1.27086   1.27100   1.27345   1.36151   1.36157
   1 1   C  1S         -0.00501  -0.01361  -0.00001  -0.02854   0.00471
   2        2S         -0.24404  -0.65766  -0.00289  -1.24533   0.20539
   3        2PX         0.40375  -0.31106   0.53444  -0.02962   0.14118
   4        2PY        -0.35301  -0.14038  -0.31034  -0.10325  -0.06124
   5        2PZ         0.00032   0.00005   0.00005   0.00006   0.00004
   6        3S          0.95138   2.56042   0.01156   4.19247  -0.68566
   7        3PX        -1.92072   0.98123  -3.12699   0.04003  -0.91883
   8        3PY         1.29760  -0.06156   1.80810   0.41702   0.45601
   9        3PZ        -0.00131   0.00010  -0.00035  -0.00029  -0.00073
  10 2   C  1S         -0.01431  -0.00231  -0.00042   0.01017  -0.02707
  11        2S         -0.69200  -0.11419  -0.01738   0.44395  -1.18137
  12        2PX         0.21546  -0.46652   0.53057  -0.14475   0.00100
  13        2PY        -0.21284  -0.32602   0.29870  -0.04040  -0.11342
  14        2PZ         0.00003   0.00006   0.00006   0.00003  -0.00016
  15        3S          2.69343   0.44612   0.06646  -1.48872   3.97826
  16        3PX        -0.52154   2.13584  -3.09753   0.91240   0.14331
  17        3PY         0.23092   1.32173  -1.77587   0.36771   0.49896
  18        3PZ         0.00079  -0.00013  -0.00033  -0.00032   0.00102
  19 3   C  1S         -0.00932   0.01113  -0.00018   0.01837   0.02235
  20        2S         -0.44790   0.54006  -0.01273   0.80090   0.97578
  21        2PX         0.18778  -0.22861   0.00640  -0.06716  -0.08146
  22        2PY        -0.46084  -0.36453   0.59409   0.11882  -0.09966
  23        2PZ         0.00050  -0.00006  -0.00023  -0.00013  -0.00003
  24        3S          1.74187  -2.10448   0.05283  -2.69027  -3.28693
  25        3PX        -0.29690   0.36027  -0.01002   0.24581   0.29766
  26        3PY         2.06665   1.61176  -3.50551  -0.79681   0.66673
  27        3PZ        -0.00201  -0.00002   0.00138   0.00078  -0.00019
  28 4   C  1S          0.00519   0.01358  -0.00004  -0.02855   0.00471
  29        2S          0.24798   0.65692   0.00170  -1.24534   0.20569
  30        2PX         0.42996  -0.31678  -0.51059   0.03137  -0.14097
  31        2PY        -0.36753  -0.13731   0.29304   0.10211   0.06184
  32        2PZ         0.00033   0.00000  -0.00054  -0.00012  -0.00013
  33        3S         -0.96265  -2.55802  -0.00909   4.18867  -0.69787
  34        3PX        -2.07369   1.01134   3.01640  -0.05071   0.91760
  35        3PY         1.38662  -0.07913  -1.73904  -0.41018  -0.45939
  36        3PZ        -0.00140   0.00012   0.00312   0.00065   0.00069
  37 5   C  1S          0.01428   0.00247   0.00039   0.01020  -0.02706
  38        2S          0.69159   0.11738   0.01683   0.44523  -1.18123
  39        2PX         0.24161  -0.47220  -0.51461   0.14489  -0.00256
  40        2PY        -0.19763  -0.32887  -0.30466   0.04103   0.11272
  41        2PZ         0.00035   0.00012   0.00020   0.00002  -0.00014
  42        3S         -2.69187  -0.45575  -0.06512  -1.50297   3.97252
  43        3PX        -0.67152   2.16801   3.04517  -0.91301  -0.13357
  44        3PY         0.14379   1.34140   1.77024  -0.37250  -0.49476
  45        3PZ        -0.00091  -0.00043  -0.00114  -0.00023   0.00051
  46 6   C  1S          0.00917  -0.01124   0.00025   0.01835   0.02236
  47        2S          0.44456  -0.54254   0.01462   0.80063   0.97567
  48        2PX         0.18829  -0.22824   0.00620   0.06673   0.08189
  49        2PY        -0.43089  -0.37078  -0.61260  -0.12049   0.09810
  50        2PZ         0.00019   0.00030   0.00048   0.00003  -0.00017
  51        3S         -1.73251   2.11176  -0.05689  -2.69927  -3.28012
  52        3PX        -0.29665   0.36053  -0.00970  -0.24399  -0.29962
  53        3PY         1.88899   1.65048   3.58780   0.80663  -0.65686
  54        3PZ        -0.00071  -0.00149  -0.00281  -0.00017   0.00095
  55 7   H  1S         -0.13191  -0.35423  -0.00146  -0.40999   0.06644
  56        2S          0.12177   0.32378   0.00170  -0.22317   0.03627
  57 8   H  1S         -0.37287  -0.06194  -0.00925   0.14480  -0.38943
  58        2S          0.34151   0.05783   0.00744   0.07920  -0.21197
  59 9   H  1S         -0.24085   0.29150  -0.00701   0.26275   0.32185
  60        2S          0.21919  -0.26747   0.00765   0.14332   0.17522
  61 10  H  1S          0.13283   0.35430   0.00100  -0.40981   0.06908
  62        2S         -0.12022  -0.32423  -0.00198  -0.22345   0.03732
  63 11  H  1S          0.37270   0.06271   0.00897   0.14782  -0.38837
  64        2S         -0.34142  -0.05662  -0.00750   0.08033  -0.21157
  65 12  H  1S          0.24006  -0.29198   0.00755   0.26433   0.32037
  66        2S         -0.22055   0.26647  -0.00701   0.14388   0.17457
                          61        62        63        64        65
                           V         V         V         V         V
     Eigenvalues --     1.43548   1.43554   1.47468   1.71831   1.71837
   1 1   C  1S         -0.00089  -0.00257   0.01528   0.02825   0.01318
   2        2S          0.15557   0.48519   0.69253   0.72631   0.33829
   3        2PX         0.00968   0.23269   0.04300   0.24855  -0.20318
   4        2PY         0.15440   0.35851   0.07524   0.14833   0.25320
   5        2PZ        -0.00009  -0.00015   0.00001   0.00004  -0.00031
   6        3S          0.48295   1.46352  -1.68351  -2.73525  -1.27241
   7        3PX         1.20313  -1.19032   0.29523  -1.76836  -0.71696
   8        3PY        -1.23796  -0.98380   0.50867  -2.96923  -1.44545
   9        3PZ         0.00079   0.00011  -0.00062   0.00108   0.00180
  10 2   C  1S          0.00185  -0.00200  -0.01527  -0.00274  -0.03107
  11        2S         -0.33925   0.38007  -0.69253  -0.06965  -0.79828
  12        2PX         0.10324  -0.20867   0.04299  -0.27593   0.16408
  13        2PY        -0.28676   0.26501  -0.07525  -0.18718  -0.22605
  14        2PZ         0.00028  -0.00036  -0.00017   0.00011   0.00043
  15        3S         -1.03554   1.14168   1.68290   0.26152   3.00738
  16        3PX         0.61667   1.57534   0.29497  -0.06963  -1.90553
  17        3PY         1.53125  -0.39732  -0.50903   0.34302   3.28584
  18        3PZ        -0.00135   0.00167   0.00137  -0.00026  -0.00321
  19 3   C  1S          0.00266   0.00054   0.01526  -0.02557   0.01788
  20        2S         -0.49854  -0.10786   0.69134  -0.65615   0.45994
  21        2PX         0.43912   0.09355  -0.08617   0.22830  -0.16002
  22        2PY         0.01511  -0.07088  -0.00054   0.19151   0.27353
  23        2PZ         0.00012   0.00007  -0.00003   0.00002  -0.00034
  24        3S         -1.50724  -0.31400  -1.68155   2.47029  -1.73461
  25        3PX        -1.48824  -0.31625  -0.59004  -3.12224   2.18779
  26        3PY        -0.36292   1.70682   0.00136  -0.06531  -0.09105
  27        3PZ         0.00011  -0.00097  -0.00075  -0.00179   0.00196
  28 4   C  1S          0.00081   0.00259  -0.01524   0.02829   0.01317
  29        2S         -0.15923  -0.48422  -0.69124   0.72634   0.33887
  30        2PX         0.00989   0.23307   0.04350  -0.24860   0.20316
  31        2PY         0.15496   0.35821   0.07463  -0.14819  -0.25350
  32        2PZ        -0.00012  -0.00003  -0.00012  -0.00008   0.00006
  33        3S         -0.47110  -1.46620   1.67831  -2.73576  -1.27802
  34        3PX         1.19968  -1.19309   0.29518   1.77095   0.71997
  35        3PY        -1.23756  -0.98234   0.51012   2.96742   1.44528
  36        3PZ         0.00134  -0.00041   0.00034  -0.00080  -0.00042
  37 5   C  1S         -0.00178   0.00206   0.01525  -0.00274  -0.03109
  38        2S          0.34205  -0.37743   0.69202  -0.07062  -0.79821
  39        2PX         0.10387  -0.20891   0.04344   0.27574  -0.16419
  40        2PY        -0.28710   0.26447  -0.07477   0.18757   0.22597
  41        2PZ         0.00021  -0.00023   0.00016   0.00001  -0.00032
  42        3S          1.02587  -1.15046  -1.68060   0.26754   3.00847
  43        3PX         0.61157   1.57793   0.29568   0.07173   1.90995
  44        3PY         1.53046  -0.39457  -0.50936  -0.34474  -3.28296
  45        3PZ        -0.00095   0.00068   0.00011  -0.00030   0.00343
  46 6   C  1S         -0.00264  -0.00061  -0.01528  -0.02553   0.01790
  47        2S          0.49931   0.10411  -0.69207  -0.65619   0.45979
  48        2PX         0.43909   0.09306  -0.08637  -0.22837   0.15992
  49        2PY         0.01489  -0.07086   0.00027  -0.19153  -0.27344
  50        2PZ         0.00004   0.00009   0.00006   0.00006   0.00015
  51        3S          1.50520   0.32584   1.68442   2.47161  -1.73025
  52        3PX        -1.48794  -0.31565  -0.58940   3.12241  -2.18763
  53        3PY        -0.36157   1.70843  -0.00042   0.06350   0.09281
  54        3PZ        -0.00016  -0.00135  -0.00009   0.00048  -0.00036
  55 7   H  1S         -0.17313  -0.52930   0.47368  -0.60346  -0.28137
  56        2S         -0.19154  -0.58732   0.35395  -0.98335  -0.45832
  57 8   H  1S          0.37333  -0.41335  -0.47363   0.05808   0.66317
  58        2S          0.41350  -0.45903  -0.35384   0.09444   1.08071
  59 9   H  1S          0.54459   0.11477   0.47390   0.54528  -0.38180
  60        2S          0.60417   0.12793   0.35434   0.88840  -0.62236
  61 10  H  1S          0.17161   0.52987  -0.47339  -0.60332  -0.28117
[...]
  59 9   H  1S         -0.00021   0.00000   0.00005  -0.00669   0.00235
  60        2S         -0.00261   0.00000  -0.00084  -0.00988   0.00024
  61 10  H  1S          0.07020   0.00000   0.02912   0.02196   0.06581
  62        2S          0.03511   0.00000   0.01216   0.01556   0.04663
  63 11  H  1S         -0.00011   0.00000   0.00005  -0.00034  -0.00400
  64        2S         -0.00077   0.00000  -0.00083  -0.00499  -0.00464
  65 12  H  1S          0.00000   0.00000  -0.00002   0.00012  -0.00006
  66        2S          0.00003   0.00000   0.00012   0.00169   0.00004
                          36        37        38        39        40
  36        3PZ         0.18464
  37 5   C  1S          0.00000   2.06278
  38        2S          0.00000  -0.02359   0.32218
  39        2PX         0.00000   0.00000   0.00000   0.41252
  40        2PY         0.00000   0.00000   0.00000   0.00000   0.40621
  41        2PZ         0.03284   0.00000   0.00000   0.00000   0.00000
  42        3S          0.00000  -0.02871   0.18437   0.00000   0.00000
  43        3PX         0.00000   0.00000   0.00000   0.08769   0.00000
  44        3PY         0.00000   0.00000   0.00000   0.00000   0.11527
  45        3PZ         0.06195   0.00000   0.00000   0.00000   0.00000
  46 6   C  1S          0.00000   0.00000  -0.00056  -0.00068  -0.00202
  47        2S          0.00000  -0.00056   0.01150   0.01018   0.03077
  48        2PX         0.00000  -0.00067   0.01030   0.00025   0.02487
  49        2PY         0.00000  -0.00203   0.03066   0.02633   0.04920
  50        2PZ        -0.00102   0.00000   0.00000   0.00000   0.00000
  51        3S          0.00000  -0.00040   0.01740   0.01065   0.01797
  52        3PX         0.00000  -0.00097   0.01483  -0.00867   0.00438
  53        3PY         0.00000  -0.00076   0.01077   0.00933   0.00700
  54        3PZ        -0.00615   0.00000   0.00000   0.00000   0.00000
  55 7   H  1S          0.00000   0.00000   0.00000   0.00000   0.00000
  56        2S          0.00000   0.00000   0.00006   0.00001   0.00030
  57 8   H  1S          0.00000   0.00000   0.00000   0.00000   0.00000
  58        2S          0.00000   0.00000   0.00001   0.00000   0.00000
  59 9   H  1S          0.00000   0.00000   0.00000   0.00000   0.00000
  60        2S          0.00000   0.00000   0.00006   0.00028   0.00003
  61 10  H  1S          0.00000   0.00000  -0.00018  -0.00053  -0.00011
  62        2S          0.00000   0.00013  -0.00184  -0.00576  -0.00077
  63 11  H  1S          0.00000  -0.00186   0.03143   0.02342   0.07019
  64        2S          0.00000  -0.00112   0.01302   0.01172   0.03512
  65 12  H  1S          0.00000   0.00000  -0.00018  -0.00043  -0.00021
  66        2S          0.00000   0.00013  -0.00184  -0.00391  -0.00261
                          41        42        43        44        45
  41        2PZ         0.29060
  42        3S          0.00000   0.17829
  43        3PX         0.00000   0.00000   0.07240
  44        3PY         0.00000   0.00000   0.00000   0.12789
  45        3PZ         0.13104   0.00000   0.00000   0.00000   0.18461
  46 6   C  1S          0.00000  -0.00040   0.00010  -0.00183   0.00000
  47        2S          0.00000   0.01740  -0.00203   0.02762   0.00000
  48        2PX         0.00000   0.00366  -0.00574   0.00190   0.00000
  49        2PY         0.00000   0.02496   0.00685   0.00902   0.00000
  50        2PZ         0.01901   0.00000   0.00000   0.00000   0.03276
  51        3S          0.00000   0.01709   0.00323   0.01104   0.00000
  52        3PX         0.00000   0.00390  -0.02106  -0.00941   0.00000
  53        3PY         0.00000   0.01036   0.00320  -0.00274   0.00000
  54        3PZ         0.03276   0.00000   0.00000   0.00000   0.06178
  55 7   H  1S          0.00000  -0.00002   0.00003   0.00003   0.00000
  56        2S          0.00000   0.00012   0.00013   0.00160   0.00000
  57 8   H  1S          0.00000   0.00001   0.00000   0.00001   0.00000
  58        2S          0.00000   0.00021  -0.00003  -0.00010   0.00000
  59 9   H  1S          0.00000  -0.00002   0.00012  -0.00006   0.00000
  60        2S          0.00000   0.00012   0.00169   0.00004   0.00000
  61 10  H  1S          0.00000   0.00005  -0.00034  -0.00400   0.00000
  62        2S          0.00000  -0.00083  -0.00499  -0.00464   0.00000
  63 11  H  1S          0.00000   0.02911   0.02197   0.06583   0.00000
  64        2S          0.00000   0.01216   0.01556   0.04665   0.00000
  65 12  H  1S          0.00000   0.00005  -0.00669   0.00235   0.00000
  66        2S          0.00000  -0.00084  -0.00989   0.00025   0.00000
                          46        47        48        49        50
  46 6   C  1S          2.06279
  47        2S         -0.02359   0.32218
  48        2PX         0.00000   0.00000   0.40314
  49        2PY         0.00000   0.00000   0.00000   0.41563
  50        2PZ         0.00000   0.00000   0.00000   0.00000   0.29058
  51        3S         -0.02871   0.18438   0.00000   0.00000   0.00000
  52        3PX         0.00000   0.00000   0.12903   0.00000   0.00000
  53        3PY         0.00000   0.00000   0.00000   0.07392   0.00000
  54        3PZ         0.00000   0.00000   0.00000   0.00000   0.13104
  55 7   H  1S          0.00000  -0.00018   0.00000  -0.00064   0.00000
  56        2S          0.00013  -0.00184  -0.00012  -0.00641   0.00000
  57 8   H  1S          0.00000   0.00000   0.00000   0.00000   0.00000
  58        2S          0.00000   0.00006   0.00018   0.00014   0.00000
  59 9   H  1S          0.00000   0.00000   0.00000   0.00000   0.00000
  60        2S          0.00000   0.00001   0.00000   0.00000   0.00000
  61 10  H  1S          0.00000   0.00000   0.00000   0.00000   0.00000
  62        2S          0.00000   0.00006   0.00018   0.00014   0.00000
  63 11  H  1S          0.00000  -0.00018   0.00000  -0.00064   0.00000
  64        2S          0.00013  -0.00184  -0.00012  -0.00641   0.00000
  65 12  H  1S         -0.00186   0.03145   0.09365   0.00000   0.00000
  66        2S         -0.00112   0.01302   0.04683   0.00000   0.00000
                          51        52        53        54        55
  51        3S          0.17829
  52        3PX         0.00000   0.15558
  53        3PY         0.00000   0.00000   0.04465
  54        3PZ         0.00000   0.00000   0.00000   0.18462
  55 7   H  1S          0.00005   0.00052  -0.00486   0.00000   0.21574
  56        2S         -0.00083   0.00043  -0.01007   0.00000   0.08425
  57 8   H  1S         -0.00002  -0.00006   0.00012   0.00000  -0.00001
  58        2S          0.00012   0.00078   0.00096   0.00000  -0.00018
  59 9   H  1S          0.00001   0.00002   0.00000   0.00000   0.00000
  60        2S          0.00021  -0.00013   0.00000   0.00000   0.00000
  61 10  H  1S         -0.00002  -0.00006   0.00012   0.00000   0.00000
  62        2S          0.00012   0.00077   0.00096   0.00000   0.00000
  63 11  H  1S          0.00005   0.00052  -0.00487   0.00000   0.00000
  64        2S         -0.00084   0.00043  -0.01008   0.00000   0.00000
  65 12  H  1S          0.02912   0.08779   0.00000   0.00000  -0.00001
  66        2S          0.01215   0.06218   0.00000   0.00000  -0.00018
                          56        57        58        59        60
  56        2S          0.08457
  57 8   H  1S         -0.00018   0.21573
  58        2S          0.00001   0.08426   0.08459
  59 9   H  1S          0.00000  -0.00001  -0.00018   0.21572
  60        2S         -0.00010  -0.00018   0.00001   0.08425   0.08458
  61 10  H  1S          0.00000   0.00000   0.00000  -0.00001  -0.00018
  62        2S          0.00000   0.00000  -0.00010  -0.00018   0.00001
  63 11  H  1S          0.00000   0.00000   0.00000   0.00000   0.00000
  64        2S         -0.00010   0.00000   0.00000   0.00000  -0.00010
  65 12  H  1S         -0.00018   0.00000   0.00000   0.00000   0.00000
  66        2S          0.00001   0.00000  -0.00010   0.00000   0.00000
                          61        62        63        64        65
  61 10  H  1S          0.21572
  62        2S          0.08425   0.08458
  63 11  H  1S         -0.00001  -0.00018   0.21570
  64        2S         -0.00018   0.00001   0.08426   0.08460
  65 12  H  1S          0.00000   0.00000  -0.00001  -0.00018   0.21574
  66        2S          0.00000  -0.00010  -0.00018   0.00001   0.08425
                          66
  66        2S          0.08457
     Gross orbital populations:
                           1
   1 1   C  1S          1.99773
   2        2S          0.69585
   3        2PX         0.75033
   4        2PY         0.73746
   5        2PZ         0.52148
   6        3S          0.49129
   7        3PX         0.20558
   8        3PY         0.32363
   9        3PZ         0.47851
  10 2   C  1S          1.99773
  11        2S          0.69586
  12        2PX         0.75034
  13        2PY         0.73748
  14        2PZ         0.52151
  15        3S          0.49128
  16        3PX         0.20556
  17        3PY         0.32364
  18        3PZ         0.47850
  19 3   C  1S          1.99773
  20        2S          0.69584
  21        2PX         0.73088
  22        2PY         0.75682
  23        2PZ         0.52146
  24        3S          0.49136
  25        3PX         0.38275
  26        3PY         0.14652
  27        3PZ         0.47853
  28 4   C  1S          1.99773
  29        2S          0.69583
  30        2PX         0.75040
  31        2PY         0.73726
  32        2PZ         0.52144
  33        3S          0.49141
  34        3PX         0.20554
  35        3PY         0.32375
  36        3PZ         0.47854
  37 5   C  1S          1.99773
  38        2S          0.69584
  39        2PX         0.75042
  40        2PY         0.73732
  41        2PZ         0.52150
  42        3S          0.49131
  43        3PX         0.20556
  44        3PY         0.32371
  45        3PZ         0.47852
  46 6   C  1S          1.99773
  47        2S          0.69586
  48        2PX         0.73093
  49        2PY         0.75688
  50        2PZ         0.52148
  51        3S          0.49131
  52        3PX         0.38272
  53        3PY         0.14648
  54        3PZ         0.47851
  55 7   H  1S          0.52964
  56        2S          0.26846
  57 8   H  1S          0.52962
  58        2S          0.26850
  59 9   H  1S          0.52960
  60        2S          0.26849
  61 10  H  1S          0.52960
  62        2S          0.26850
  63 11  H  1S          0.52957
  64        2S          0.26853
  65 12  H  1S          0.52964
  66        2S          0.26846
          Condensed to atoms (all electrons):
               1          2          3          4          5          6
     1  C    4.989554   0.512532  -0.055365  -0.032521  -0.055391   0.512875
     2  C    0.512532   4.989635   0.512847  -0.055397  -0.032512  -0.055391
     3  C   -0.055365   0.512847   4.989617   0.512527  -0.055393  -0.032519
     4  C   -0.032521  -0.055397   0.512527   4.989596   0.512859  -0.055367
     5  C   -0.055391  -0.032512  -0.055393   0.512859   4.989638   0.512507
     6  C    0.512875  -0.055391  -0.032519  -0.055367   0.512507   4.989614
     7  H    0.373202  -0.023841   0.002274   0.000123   0.002276  -0.023836
     8  H   -0.023855   0.373196  -0.023830   0.002276   0.000123   0.002277
     9  H    0.002275  -0.023835   0.373192  -0.023832   0.002274   0.000123
    10  H    0.000123   0.002275  -0.023851   0.373189  -0.023814   0.002273
    11  H    0.002276   0.000123   0.002275  -0.023820   0.373182  -0.023856
    12  H   -0.023828   0.002276   0.000123   0.002275  -0.023847   0.373202
               7          8          9         10         11         12
     1  C    0.373202  -0.023855   0.002275   0.000123   0.002276  -0.023828
     2  C   -0.023841   0.373196  -0.023835   0.002275   0.000123   0.002276
     3  C    0.002274  -0.023830   0.373192  -0.023851   0.002275   0.000123
     4  C    0.000123   0.002276  -0.023832   0.373189  -0.023820   0.002275
     5  C    0.002276   0.000123   0.002274  -0.023814   0.373182  -0.023847
     6  C   -0.023836   0.002277   0.000123   0.002273  -0.023856   0.373202
     7  H    0.468807  -0.000357  -0.000100   0.000005  -0.000100  -0.000356
     8  H   -0.000357   0.468839  -0.000357  -0.000100   0.000005  -0.000100
     9  H   -0.000100  -0.000357   0.468796  -0.000353  -0.000100   0.000005
    10  H    0.000005  -0.000100  -0.000353   0.468807  -0.000355  -0.000100
    11  H   -0.000100   0.000005  -0.000100  -0.000355   0.468827  -0.000357
    12  H   -0.000356  -0.000100   0.000005  -0.000100  -0.000357   0.468807
 Mulliken charges:
               1
     1  C   -0.201878
     2  C   -0.201908
     3  C   -0.201897
     4  C   -0.201910
     5  C   -0.201902
     6  C   -0.201903
     7  H    0.201902
     8  H    0.201883
     9  H    0.201912
    10  H    0.201901
    11  H    0.201900
    12  H    0.201899
 Sum of Mulliken charges =   0.00000
 Mulliken charges with hydrogens summed into heavy atoms:
               1
     1  C    0.000024
     2  C   -0.000025
     3  C    0.000015
     4  C   -0.000009
     5  C   -0.000002
     6  C   -0.000004
 Electronic spatial extent (au):  <R**2>=            776.2893
 Charge=              0.0000 electrons
 Dipole moment (field-independent basis, Debye):
    X=             -0.0001    Y=             -0.0002    Z=              0.0009  Tot=              0.0009
 Quadrupole moment (field-independent basis, Debye-Ang):
   XX=            -31.7765   YY=            -31.7788   ZZ=            -40.4801
   XY=              0.0006   XZ=              0.0042   YZ=             -0.0049
 Traceless Quadrupole moment (field-independent basis, Debye-Ang):
   XX=              2.9020   YY=              2.8997   ZZ=             -5.8017
   XY=              0.0006   XZ=              0.0042   YZ=             -0.0049
 Octapole moment (field-independent basis, Debye-Ang**2):
  XXX=             -4.6695  YYY=           -138.1799  ZZZ=              0.1244  XYY=             -1.5552
  XXY=            -46.0492  XXZ=              0.0376  XZZ=             -1.9836  YZZ=            -58.6702
  YYZ=              0.0187  XYZ=              0.0064
 Hexadecapole moment (field-independent basis, Debye-Ang**3):
 XXXX=           -268.2774 YYYY=           -668.3831 ZZZZ=            -43.9297 XXXY=             -6.7616
 XXXZ=             -0.0080 YYYX=             -6.7590 YYYZ=              0.1582 ZZZX=             -0.0304
 ZZZY=              0.2690 XXYY=           -156.0816 XXZZ=            -63.2816 YYZZ=           -148.2175
 XXYZ=              0.0689 YYXZ=              0.0123 ZZXY=             -2.8739
 N-N= 2.030307491037D+02 E-N=-9.428399207731D+02  KE= 2.305565840122D+02
 Orbital energies and kinetic energies (alpha):
                                 1                 2
   1         O               -11.241244         16.010080
   2         O               -11.240704         16.014783
   3         O               -11.240697         16.014777
   4         O               -11.239518         16.025419
   5         O               -11.239508         16.025419
   6         O               -11.238940         16.031748
   7         O                -1.151796          1.466997
   8         O                -1.013082          1.586801
   9         O                -1.013033          1.586641
  10         O                -0.818573          1.444139
  11         O                -0.818517          1.443976
  12         O                -0.704639          0.915881
  13         O                -0.631310          1.248096
  14         O                -0.617002          1.445049
  15         O                -0.582481          1.170090
  16         O                -0.582461          1.170109
  17         O                -0.499649          0.880351
  18         O                -0.484833          1.360129
  19         O                -0.484738          1.360101
  20         O                -0.333861          1.038879
  21         O                -0.333808          1.038827
  22         V                 0.145609          1.181451
  23         V                 0.145668          1.181412
  24         V                 0.227844          0.803611
  25         V                 0.286176          0.834822
  26         V                 0.286195          0.834796
  27         V                 0.327660          1.030381
  28         V                 0.327675          1.030369
  29         V                 0.331680          0.948503
  30         V                 0.361270          1.396609
  31         V                 0.468804          1.329574
  32         V                 0.468857          1.329510
  33         V                 0.496597          1.328955
  34         V                 0.496673          1.328740
  35         V                 0.681051          1.488749
  36         V                 0.753629          2.061021
  37         V                 0.770389          2.892675
  38         V                 0.771700          1.570402
  39         V                 0.781710          1.767409
  40         V                 0.840249          1.611123
  41         V                 0.844273          2.175924
  42         V                 0.844300          2.176059
  43         V                 0.873647          2.695378
  44         V                 0.873760          2.695643
  45         V                 0.896678          2.090825
  46         V                 0.896740          2.090874
  47         V                 0.915034          2.402600
  48         V                 0.915057          2.402745
  49         V                 0.990648          2.488583
  50         V                 1.123483          2.975593
  51         V                 1.123500          2.975594
  52         V                 1.130998          3.219696
  53         V                 1.153502          2.918992
  54         V                 1.153546          2.919129
  55         V                 1.229985          2.892387
  56         V                 1.270865          2.992186
  57         V                 1.270996          2.992483
  58         V                 1.273449          3.554285
  59         V                 1.361512          2.415682
  60         V                 1.361574          2.415935
  61         V                 1.435483          2.370666
  62         V                 1.435543          2.370693
  63         V                 1.474685          2.501403
  64         V                 1.718314          2.645647
  65         V                 1.718373          2.645792
  66         V                 2.158275          2.956254
 Total kinetic energy from orbitals= 2.305565840122D+02
 Unable to Open any file for archive entry.
 1\1\GINC-MEDUSA\SP\RHF\6-31G\C6H6\DBWY\22-Sep-2015\0\\# hf/6-31G gfinp
 ut pop=full nosymm\\Benzene 6-31G\\0,1\C,0,-0.64863549,0.24130784,-0.0
 0045\C,0,0.74652451,0.24130784,-0.00045\C,0,1.44406251,1.44905884,-0.0
 0045\C,0,0.74640851,2.65756784,-0.001649\C,0,-0.64841649,2.65748984,-0
 .002128\C,0,-1.34601749,1.44928384,-0.001132\H,0,-1.19839449,-0.711009
 16,0.\H,0,1.29603251,-0.71120516,0.000865\H,0,2.54374251,1.44913884,0.
 000184\H,0,1.29660851,3.60971084,-0.001708\H,0,-1.19853849,3.60977084,
 -0.003081\H,0,-2.44562149,1.44946684,-0.001312\\Version=ES64L-GDVRevI.
 01+\HF=-230.6213128\RMSD=4.390e-09\Dipole=-0.0000245,-0.0000658,0.0003
 45\Quadrupole=2.1575562,2.155835,-4.3133912,0.0004638,0.0031523,-0.003
 6793\PG=C01 [X(C6H6)]\\@
 The archive entry for this job was punched.


 SCIENCE IS LONG AND LIFE IS SHORT.

                     DON MOSER IN THE FEBRUARY 1979 SMITHSONIAN
 Job cpu time:       0 days  0 hours  0 minutes  1.1 seconds.
 Elapsed time:       0 days  0 hours  0 minutes  0.9 seconds.
 File lengths (MBytes):  RWF=      5 Int=      0 D2E=      0 Chk=      1 Scr=      1
 Normal termination of Gaussian DV at Tue Sep 22 13:39:12 2015.
