 Entering Gaussian System, Link 0=gdv
 Input=benzene_sto3g_field.com
 Output=benzene_sto3g_field.log
 Initial command:
 /home/gauss/gdvi03p/gdv/l1.exe "/home/GauScr/Gau-10698.inp" -scrdir="/home/GauScr/"
 Entering Link 1 = /home/gauss/gdvi03p/gdv/l1.exe PID=     10699.
  
 Copyright (c) 1988,1990,1992,1993,1995,1998,2003,2009,2015,
            Gaussian, Inc.  All Rights Reserved.
  
 This is the private, development version of
 the Gaussian(R) DV system of programs. It is based on
 the Gaussian(R) 09 system (copyright 2009, Gaussian, Inc.),
 the Gaussian(R) 03 system (copyright 2003, Gaussian, Inc.),
 the Gaussian(R) 98 system (copyright 1998, Gaussian, Inc.),
 the Gaussian(R) 94 system (copyright 1995, Gaussian, Inc.),
 the Gaussian 92(TM) system (copyright 1992, Gaussian, Inc.),
 the Gaussian 90(TM) system (copyright 1990, Gaussian, Inc.),
 the Gaussian 88(TM) system (copyright 1988, Gaussian, Inc.),
 the Gaussian 86(TM) system (copyright 1986, Carnegie Mellon
 University), and the Gaussian 82(TM) system (copyright 1983,
 Carnegie Mellon University). Gaussian is a federally registered
 trademark of Gaussian, Inc.
  
 This software contains proprietary and confidential information,
 including trade secrets, belonging to Gaussian, Inc.
  
 This software is provided under written license and may be
 used, copied, transmitted, or stored only in accord with that
 written license.
  
 The following legend is applicable only to US Government
 contracts under FAR:
  
                    RESTRICTED RIGHTS LEGEND
  
 Use, reproduction and disclosure by the US Government is
 subject to restrictions as set forth in subparagraphs (a)
 and (c) of the Commercial Computer Software - Restricted
 Rights clause in FAR 52.227-19.
  
 Gaussian, Inc.
 340 Quinnipiac St., Bldg. 40, Wallingford CT 06492
  
  
 ---------------------------------------------------------------
 Warning -- This program may not be used in any manner that
 competes with the business of Gaussian, Inc. or will provide
 assistance to any competitor of Gaussian, Inc.  The licensee
 of this program is prohibited from giving any competitor of
 Gaussian, Inc. access to this program.  By using this program,
 the user acknowledges that Gaussian, Inc. is engaged in the
 business of creating and licensing software in the field of
 computational chemistry and represents and warrants to the
 licensee that it is not a competitor of Gaussian, Inc. and that
 it will not use this program in any manner prohibited above.
 ---------------------------------------------------------------
  

 Cite this work as:
 Gaussian Development Version, Revision I.03+,
 M. J. Frisch, G. W. Trucks, H. B. Schlegel, G. E. Scuseria, 
 M. A. Robb, J. R. Cheeseman, G. Scalmani, V. Barone, B. Mennucci, 
 G. A. Petersson, H. Nakatsuji, M. Caricato, X. Li, H. P. Hratchian, 
 J. Bloino, B. G. Janesko, A. F. Izmaylov, A. Marenich, F. Lipparini, 
 G. Zheng, J. L. Sonnenberg, W. Liang, M. Hada, M. Ehara, K. Toyota, 
 R. Fukuda, J. Hasegawa, M. Ishida, T. Nakajima, Y. Honda, O. Kitao, 
 H. Nakai, T. Vreven, K. Throssell, J. A. Montgomery, Jr., 
 J. E. Peralta, F. Ogliaro, M. Bearpark, J. J. Heyd, E. Brothers, 
 K. N. Kudin, V. N. Staroverov, T. Keith, R. Kobayashi, J. Normand, 
 K. Raghavachari, A. Rendell, J. C. Burant, S. S. Iyengar, J. Tomasi, 
 M. Cossi, N. Rega, J. M. Millam, M. Klene, J. E. Knox, J. B. Cross, 
 V. Bakken, C. Adamo, J. Jaramillo, R. Gomperts, R. E. Stratmann, 
 O. Yazyev, A. J. Austin, R. Cammi, C. Pomelli, J. W. Ochterski, 
 R. L. Martin, K. Morokuma, V. G. Zakrzewski, G. A. Voth, 
 P. Salvador, J. J. Dannenberg, S. Dapprich, P. V. Parandekar, 
 N. J. Mayhall, A. D. Daniels, O. Farkas, J. B. Foresman, 
 J. V. Ortiz, J. Cioslowski, and D. J. Fox, 
 Gaussian, Inc., Wallingford CT, 2014.
 
 *******************************************
 Gaussian DV:  ES64L-GDVRevI.03+  2-May-2015
                 26-Oct-2015 
 *******************************************
 -----------------------------------------------
 # hf/sto-3G gfinput pop=full nosymm Field=X-100
 -----------------------------------------------
 1/38=1,172=1/1;
 2/12=2,15=1,17=6,18=5,40=1/2;
 3/6=3,11=9,14=1,15=-100,24=10,25=1,30=1/1,2,3;
 4//1;
 5/5=2,38=5/2;
 6/7=3,28=1/1;
 99/5=1,9=1/99;
 --------------
 Benzene STO-3G
 --------------
 Symbolic Z-matrix:
 Charge =  0 Multiplicity = 1
 C                    -0.20699  -0.18218   0.00007 
 C                     1.19167  -0.18235   0.0005 
 C                     1.89106   1.02887  -0.00007 
 C                     1.19173   2.24013  -0.00106 
 C                    -0.20692   2.24031  -0.00148 
 C                    -0.90631   1.02909  -0.00092 
 H                    -0.75075  -1.1239    0.00051 
 H                     1.73529  -1.12415   0.00127 
 H                     2.97848   1.02893   0.00027 
 H                     1.7355    3.18185  -0.0015 
 H                    -0.75054   3.1821   -0.00226 
 H                    -1.99373   1.02902  -0.00125 
 
                          Input orientation:                          
 ---------------------------------------------------------------------
 Center     Atomic      Atomic             Coordinates (Angstroms)
 Number     Number       Type             X           Y           Z
 ---------------------------------------------------------------------
      1          6           0       -0.206985   -0.182180    0.000071
      2          6           0        1.191674   -0.182353    0.000499
      3          6           0        1.891055    1.028868   -0.000066
      4          6           0        1.191735    2.240134   -0.001056
      5          6           0       -0.206924    2.240307   -0.001484
      6          6           0       -0.906306    1.029086   -0.000919
      7          1           0       -0.750746   -1.123896    0.000510
      8          1           0        1.735285   -1.124149    0.001271
      9          1           0        2.978478    1.028934    0.000267
     10          1           0        1.735496    3.181849   -0.001495
     11          1           0       -0.750536    3.182103   -0.002255
     12          1           0       -1.993729    1.029020   -0.001252
 ---------------------------------------------------------------------
                    Distance matrix (angstroms):
                    1          2          3          4          5
     1  C    0.000000
     2  C    1.398659   0.000000
     3  C    2.422480   1.398639   0.000000
     4  C    2.797145   2.422487   1.398648   0.000000
     5  C    2.422487   2.797385   2.422623   1.398659   0.000000
     6  C    1.398648   2.422623   2.797361   2.422480   1.398639
     7  H    1.087430   2.158587   3.407859   3.884576   3.407874
     8  H    2.158639   1.087425   2.158645   3.407910   3.884810
     9  H    3.407928   2.158677   1.087423   2.158578   3.407964
    10  H    3.884576   3.407874   2.158595   1.087430   2.158587
    11  H    3.407910   3.884810   3.407995   2.158639   1.087425
    12  H    2.158578   3.407964   3.884784   3.407928   2.158677
                    6          7          8          9         10
     6  C    0.000000
     7  H    2.158595   0.000000
     8  H    3.407995   2.486032   0.000000
     9  H    3.884784   4.306018   2.486221   0.000000
    10  H    3.407859   4.972006   4.306000   2.485971   0.000000
    11  H    2.158645   4.306000   4.972236   4.306006   2.486032
    12  H    1.087423   2.485971   4.306006   4.972207   4.306018
                   11         12
    11  H    0.000000
    12  H    2.486221   0.000000
 Symmetry turned off by external request.
 Stoichiometry    C6H6
 Framework group  CI[X(C6H6)]
 Deg. of freedom    15
 Full point group                 CI      NOp   2
 Rotational constants (GHZ):      5.6717105      5.6710222      2.8356832
 Standard basis: STO-3G (5D, 7F)
 The following finite field(s) will be applied:
 An electric field of             -0.0100  0.0000  0.0000
 AO basis set in the form of general basis input (Overlap normalization):
      1 0
 S   3 1.00       0.000000000000
      0.7161683735D+02  0.1543289673D+00
      0.1304509632D+02  0.5353281423D+00
      0.3530512160D+01  0.4446345422D+00
 SP   3 1.00       0.000000000000
      0.2941249355D+01 -0.9996722919D-01  0.1559162750D+00
      0.6834830964D+00  0.3995128261D+00  0.6076837186D+00
      0.2222899159D+00  0.7001154689D+00  0.3919573931D+00
 ****
      2 0
 S   3 1.00       0.000000000000
      0.7161683735D+02  0.1543289673D+00
      0.1304509632D+02  0.5353281423D+00
      0.3530512160D+01  0.4446345422D+00
 SP   3 1.00       0.000000000000
      0.2941249355D+01 -0.9996722919D-01  0.1559162750D+00
      0.6834830964D+00  0.3995128261D+00  0.6076837186D+00
      0.2222899159D+00  0.7001154689D+00  0.3919573931D+00
 ****
      3 0
 S   3 1.00       0.000000000000
      0.7161683735D+02  0.1543289673D+00
      0.1304509632D+02  0.5353281423D+00
      0.3530512160D+01  0.4446345422D+00
 SP   3 1.00       0.000000000000
      0.2941249355D+01 -0.9996722919D-01  0.1559162750D+00
      0.6834830964D+00  0.3995128261D+00  0.6076837186D+00
      0.2222899159D+00  0.7001154689D+00  0.3919573931D+00
 ****
      4 0
 S   3 1.00       0.000000000000
      0.7161683735D+02  0.1543289673D+00
      0.1304509632D+02  0.5353281423D+00
      0.3530512160D+01  0.4446345422D+00
 SP   3 1.00       0.000000000000
      0.2941249355D+01 -0.9996722919D-01  0.1559162750D+00
      0.6834830964D+00  0.3995128261D+00  0.6076837186D+00
      0.2222899159D+00  0.7001154689D+00  0.3919573931D+00
 ****
      5 0
 S   3 1.00       0.000000000000
      0.7161683735D+02  0.1543289673D+00
      0.1304509632D+02  0.5353281423D+00
      0.3530512160D+01  0.4446345422D+00
 SP   3 1.00       0.000000000000
      0.2941249355D+01 -0.9996722919D-01  0.1559162750D+00
      0.6834830964D+00  0.3995128261D+00  0.6076837186D+00
      0.2222899159D+00  0.7001154689D+00  0.3919573931D+00
 ****
      6 0
 S   3 1.00       0.000000000000
      0.7161683735D+02  0.1543289673D+00
      0.1304509632D+02  0.5353281423D+00
      0.3530512160D+01  0.4446345422D+00
 SP   3 1.00       0.000000000000
      0.2941249355D+01 -0.9996722919D-01  0.1559162750D+00
      0.6834830964D+00  0.3995128261D+00  0.6076837186D+00
      0.2222899159D+00  0.7001154689D+00  0.3919573931D+00
 ****
      7 0
 S   3 1.00       0.000000000000
      0.3425250914D+01  0.1543289673D+00
      0.6239137298D+00  0.5353281423D+00
      0.1688554040D+00  0.4446345422D+00
 ****
      8 0
 S   3 1.00       0.000000000000
      0.3425250914D+01  0.1543289673D+00
      0.6239137298D+00  0.5353281423D+00
      0.1688554040D+00  0.4446345422D+00
 ****
      9 0
 S   3 1.00       0.000000000000
      0.3425250914D+01  0.1543289673D+00
      0.6239137298D+00  0.5353281423D+00
      0.1688554040D+00  0.4446345422D+00
 ****
     10 0
 S   3 1.00       0.000000000000
      0.3425250914D+01  0.1543289673D+00
      0.6239137298D+00  0.5353281423D+00
      0.1688554040D+00  0.4446345422D+00
 ****
     11 0
 S   3 1.00       0.000000000000
      0.3425250914D+01  0.1543289673D+00
      0.6239137298D+00  0.5353281423D+00
      0.1688554040D+00  0.4446345422D+00
 ****
     12 0
 S   3 1.00       0.000000000000
      0.3425250914D+01  0.1543289673D+00
      0.6239137298D+00  0.5353281423D+00
      0.1688554040D+00  0.4446345422D+00
 ****

    36 basis functions,   108 primitive gaussians,    36 cartesian basis functions
    21 alpha electrons       21 beta electrons
       nuclear repulsion energy       202.9242874433 Hartrees.
 NAtoms=   12 NActive=   12 NUniq=   12 SFac= 1.00D+00 NAtFMM=   60 NAOKFM=F Big=F
 Integral buffers will be    131072 words long.
 Raffenetti 1 integral format.
 Two-electron integral symmetry is turned off.
 One-electron integrals computed using PRISM.
 NBasis=    36 RedAO= T EigKep=  1.73D-01  NBF=    36
 NBsUse=    36 1.00D-06 EigRej= -1.00D+00 NBFU=    36
 The nuclear repulsion energy is now       202.5334968734 hartrees.
 ExpMin= 1.69D-01 ExpMax= 7.16D+01 ExpMxC= 7.16D+01 IAcc=1 IRadAn=         1 AccDes= 0.00D+00
 Harris functional with IExCor=  205 and IRadAn=       1 diagonalized for initial guess.
 HarFok:  IExCor=  205 AccDes= 0.00D+00 IRadAn=         1 IDoV= 1 UseB2=F ITyADJ=14
 ICtDFT=  3500011 ScaDFX=  1.000000  1.000000  1.000000  1.000000
 FoFCou: FMM=F IPFlag=           0 FMFlag=      100000 FMFlg1=           0
         NFxFlg=           0 DoJE=T BraDBF=F KetDBF=T FulRan=T
         wScrn=  0.000000 ICntrl=       500 IOpCl=  0 I1Cent=   200000004 NGrid=           0
         NMat0=    1 NMatS0=      1 NMatT0=    0 NMatD0=    1 NMtDS0=    0 NMtDT0=    0
 Symmetry not used in FoFCou.
 Keep R1 ints in memory in canonical form, NReq=1044461.
 Requested convergence on RMS density matrix=1.00D-08 within 128 cycles.
 Requested convergence on MAX density matrix=1.00D-06.
 Requested convergence on             energy=1.00D-06.
 No special actions if energy rises.
 SCF Done:  E(RHF) =  -227.892546001     A.U. after   11 cycles
            NFock= 11  Conv=0.21D-08     -V/T= 2.0087

 **********************************************************************

            Population analysis using the SCF density.

 **********************************************************************

 Alpha  occ. eigenvalues --  -11.02557 -11.02260 -11.02252 -11.01657 -11.01653
 Alpha  occ. eigenvalues --  -11.01355  -1.07828  -0.94376  -0.94355  -0.75657
 Alpha  occ. eigenvalues --   -0.75616  -0.65124  -0.58495  -0.54190  -0.52371
 Alpha  occ. eigenvalues --   -0.52289  -0.44519  -0.42221  -0.42149  -0.26937
 Alpha  occ. eigenvalues --   -0.26864
 Alpha virt. eigenvalues --    0.27677   0.27731   0.51087   0.58351   0.65557
 Alpha virt. eigenvalues --    0.65867   0.71792   0.73861   0.74473   0.88978
 Alpha virt. eigenvalues --    0.89008   0.90171   0.90212   1.09052   1.15291
     Molecular Orbital Coefficients:
                           1         2         3         4         5
                           O         O         O         O         O
     Eigenvalues --   -11.02557 -11.02260 -11.02252 -11.01657 -11.01653
   1 1   C  1S          0.04242  -0.66367   0.73599  -0.02042  -0.00793
   2        2S         -0.00550  -0.02396   0.02744  -0.00625  -0.00483
   3        2PX         0.00218  -0.00030   0.00014  -0.00347  -0.00288
   4        2PY        -0.00388  -0.00064   0.00097   0.00000  -0.00024
   5        2PZ         0.00000   0.00000   0.00000   0.00000   0.00000
   6 2   C  1S         -0.00269  -0.01932   0.01217   0.77499   0.61764
   7        2S         -0.00014   0.00396  -0.00486   0.02826   0.02238
   8        2PX         0.00016  -0.00290   0.00338  -0.00067  -0.00053
   9        2PY        -0.00005  -0.00008  -0.00017   0.00077   0.00041
  10        2PZ         0.00000   0.00000   0.00000   0.00000   0.00000
  11 3   C  1S         -0.00342  -0.00019  -0.00367   0.00683   0.06164
  12        2S         -0.00017   0.00000   0.00006  -0.00087  -0.00770
  13        2PX         0.00020   0.00000   0.00008   0.00036   0.00320
  14        2PY         0.00000  -0.00006   0.00000   0.00536  -0.00060
  15        2PZ         0.00000   0.00000   0.00000   0.00000   0.00000
  16 4   C  1S         -0.00269   0.02044   0.01004  -0.61885   0.77402
  17        2S         -0.00014  -0.00445  -0.00442  -0.02260   0.02809
  18        2PX         0.00016   0.00323   0.00306   0.00053  -0.00066
  19        2PY         0.00005  -0.00007   0.00017   0.00066  -0.00057
  20        2PZ         0.00000   0.00000   0.00000   0.00000   0.00000
  21 5   C  1S          0.04253   0.73699   0.66255   0.01812  -0.01221
  22        2S         -0.00549   0.02670   0.02478   0.00502  -0.00609
  23        2PX         0.00218   0.00032   0.00011   0.00274  -0.00357
  24        2PY         0.00387  -0.00074  -0.00089   0.00006   0.00023
  25        2PZ         0.00000   0.00000   0.00000   0.00000   0.00000
  26 6   C  1S          0.99041  -0.00316  -0.05880   0.00056   0.00497
  27        2S          0.03568  -0.00064  -0.01218   0.00007   0.00066
  28        2PX         0.00084  -0.00018  -0.00335   0.00000   0.00001
  29        2PY         0.00000  -0.00543   0.00028  -0.00024   0.00003
  30        2PZ         0.00000   0.00000   0.00000   0.00000   0.00000
  31 7   H  1S         -0.00021   0.00450  -0.00513   0.00024   0.00006
  32 8   H  1S         -0.00007   0.00003  -0.00005  -0.00523  -0.00427
  33 9   H  1S         -0.00004   0.00000  -0.00009  -0.00003  -0.00029
  34 10  H  1S         -0.00007  -0.00003  -0.00005   0.00415  -0.00533
  35 11  H  1S         -0.00021  -0.00501  -0.00463  -0.00022   0.00011
  36 12  H  1S         -0.00685   0.00003   0.00053  -0.00002  -0.00016
                           6         7         8         9        10
                           O         O         O         O         O
     Eigenvalues --   -11.01355  -1.07828  -0.94376  -0.94355  -0.75657
   1 1   C  1S          0.00343  -0.10836   0.12817   0.06915   0.06221
   2        2S          0.00067   0.27562  -0.34740  -0.18761  -0.18473
   3        2PX         0.00025   0.02539  -0.06622   0.09792  -0.14595
   4        2PY        -0.00005   0.05583   0.01481  -0.06468   0.13592
   5        2PZ         0.00000  -0.00003  -0.00003   0.00007  -0.00013
   6 2   C  1S         -0.04296  -0.10036   0.12539  -0.07676   0.05181
   7        2S         -0.00870   0.25416  -0.33857   0.20706  -0.15206
   8        2PX        -0.00210  -0.03545   0.06979   0.08294   0.15506
   9        2PY        -0.00399   0.05048   0.00905   0.07101   0.13547
  10        2PZ         0.00000  -0.00004   0.00001  -0.00002  -0.00004
  11 3   C  1S          0.99025  -0.09658   0.00467  -0.14730  -0.11674
  12        2S          0.03677   0.24403  -0.01258   0.39679   0.34317
  13        2PX        -0.00149  -0.06146   0.00125  -0.03920   0.06743
  14        2PY         0.00000   0.00000   0.12153   0.00386   0.00397
  15        2PZ         0.00000  -0.00002  -0.00008  -0.00001   0.00002
  16 4   C  1S         -0.04308  -0.10036  -0.12027  -0.08456   0.04814
  17        2S         -0.00871   0.25416   0.32476   0.22811  -0.14125
  18        2PX        -0.00210  -0.03545  -0.07491   0.07835   0.15926
  19        2PY         0.00399  -0.05047   0.01356  -0.07030  -0.13530
  20        2PZ         0.00000   0.00002  -0.00003   0.00007   0.00013
  21 5   C  1S          0.00343  -0.10836  -0.13230   0.06088   0.06548
  22        2S          0.00067   0.27562   0.35860  -0.16521  -0.19441
  23        2PX         0.00025   0.02538   0.05989   0.10191  -0.14064
  24        2PY         0.00005  -0.05584   0.01066   0.06548  -0.13608
  25        2PZ         0.00000   0.00004   0.00001  -0.00001   0.00004
  26 6   C  1S          0.00296  -0.11259  -0.00458   0.14448  -0.11124
  27        2S         -0.00006   0.28699   0.01245  -0.39256   0.32993
  28        2PX        -0.00022   0.06065   0.00047  -0.01452  -0.10147
  29        2PY         0.00000   0.00000   0.13830   0.00439  -0.00410
  30        2PZ         0.00000   0.00002  -0.00009  -0.00001  -0.00003
  31 7   H  1S         -0.00011   0.05127  -0.10010  -0.05581  -0.09986
  32 8   H  1S          0.00038   0.04322  -0.08893   0.05300  -0.07895
  33 9   H  1S         -0.00673   0.03970  -0.00311   0.09830   0.15945
  34 10  H  1S          0.00038   0.04322   0.08540   0.05854  -0.07366
  35 11  H  1S         -0.00011   0.05127   0.10344  -0.04934  -0.10541
  36 12  H  1S         -0.00007   0.05584   0.00381  -0.12045   0.19903
                          11        12        13        14        15
                           O         O         O         O         O
     Eigenvalues --    -0.75616  -0.65124  -0.58495  -0.54190  -0.52371
   1 1   C  1S         -0.09436   0.00559   0.06109  -0.00267  -0.02623
   2        2S          0.27896  -0.02529  -0.20606   0.00997   0.08431
   3        2PX        -0.14913   0.11433   0.11312   0.28116   0.20653
   4        2PY        -0.00794   0.21936   0.12890  -0.18105   0.25943
   5        2PZ        -0.00004  -0.00011  -0.00005   0.00020  -0.00010
   6 2   C  1S          0.10353   0.01206  -0.06887   0.00391  -0.01964
   7        2S         -0.30543  -0.04619   0.23013  -0.01391   0.06133
   8        2PX        -0.12314  -0.11667   0.04989  -0.28391  -0.21516
   9        2PY         0.00352   0.18571  -0.15175  -0.16175   0.23271
  10        2PZ        -0.00004  -0.00016   0.00011   0.00002  -0.00022
  11 3   C  1S          0.00205   0.01468   0.07286   0.00001  -0.00039
  12        2S         -0.00603  -0.05455  -0.24243  -0.00005   0.00117
  13        2PX        -0.00118  -0.20561  -0.15229   0.00000  -0.00727
  14        2PY         0.22623  -0.00001  -0.00002   0.32681  -0.06529
  15        2PZ        -0.00015  -0.00006  -0.00005  -0.00021   0.00004
  16 4   C  1S         -0.10528   0.01206  -0.06888  -0.00392   0.01914
  17        2S          0.31058  -0.04617   0.23015   0.01395  -0.05982
  18        2PX         0.11762  -0.11671   0.04978   0.28388   0.21319
  19        2PY         0.00826  -0.18569   0.15170  -0.16174   0.22423
  20        2PZ         0.00003   0.00008  -0.00008   0.00019  -0.00008
  21 5   C  1S          0.09212   0.00559   0.06108   0.00268   0.02672
  22        2S         -0.27231  -0.02532  -0.20602  -0.01001  -0.08593
  23        2PX         0.15417   0.11430   0.11324  -0.28117  -0.20571
  24        2PY        -0.00318  -0.21940  -0.12897  -0.18105   0.26676
  25        2PZ         0.00005   0.00018   0.00012   0.00003  -0.00023
  26 6   C  1S          0.00196   0.00174  -0.05721  -0.00001   0.00062
  27        2S         -0.00580  -0.01277   0.19394   0.00004  -0.00203
  28        2PX         0.00178   0.26160  -0.17514  -0.00001  -0.00696
  29        2PY        -0.23326   0.00001  -0.00002   0.34157  -0.12200
  30        2PZ         0.00015   0.00008  -0.00005  -0.00022   0.00008
  31 7   H  1S          0.16005  -0.18871  -0.23847   0.01977  -0.25967
  32 8   H  1S         -0.14928  -0.16244   0.22183  -0.00818  -0.23128
  33 9   H  1S         -0.00279  -0.15007  -0.21569  -0.00001  -0.00528
  34 10  H  1S          0.15196  -0.16243   0.22175   0.00824   0.22506
  35 11  H  1S         -0.15645  -0.18873  -0.23855  -0.01984   0.26439
  36 12  H  1S         -0.00349  -0.20271   0.24857   0.00002   0.00568
                          16        17        18        19        20
                           O         O         O         O         O
     Eigenvalues --    -0.52289  -0.44519  -0.42221  -0.42149  -0.26937
   1 1   C  1S         -0.01284   0.00000  -0.00567  -0.01029   0.00000
   2        2S          0.04213   0.00000   0.01207   0.03247   0.00000
   3        2PX        -0.01503  -0.00011  -0.03039   0.31621   0.00014
   4        2PY         0.19418   0.00022   0.26651  -0.01710  -0.00030
   5        2PZ        -0.00013   0.35029  -0.00018   0.00011  -0.47157
   6 2   C  1S          0.01200   0.00000   0.00790   0.00257   0.00000
   7        2S         -0.03618   0.00000  -0.01835  -0.01506   0.00000
   8        2PX         0.04755  -0.00010  -0.01442  -0.32003   0.00014
   9        2PY        -0.21429   0.00020  -0.32121  -0.02882  -0.00029
  10        2PZ         0.00015   0.31723   0.00020  -0.00008  -0.44985
  11 3   C  1S          0.02097   0.00000  -0.00003   0.00291   0.00000
  12        2S         -0.06354   0.00000  -0.00003   0.00230   0.00000
  13        2PX         0.37223  -0.00009  -0.00373   0.32548   0.00000
  14        2PY        -0.00128   0.00019   0.34719   0.00396   0.00000
  15        2PZ         0.00012   0.30158  -0.00022   0.00010  -0.00418
  16 4   C  1S          0.01277   0.00000  -0.00796   0.00240   0.00000
  17        2S         -0.03859   0.00000   0.01870  -0.01466   0.00000
  18        2PX         0.05590  -0.00010   0.02165  -0.31962  -0.00014
  19        2PY         0.22317   0.00020  -0.32180   0.02154   0.00029
  20        2PZ        -0.00013   0.31723   0.00021  -0.00011   0.44528
  21 5   C  1S         -0.01180   0.00000   0.00590  -0.01016   0.00000
  22        2S          0.03877   0.00000  -0.01280   0.03220   0.00000
  23        2PX        -0.02306  -0.00011   0.02323   0.31682  -0.00015
  24        2PY        -0.18392   0.00023   0.26605   0.02312   0.00031
  25        2PZ         0.00011   0.35029  -0.00016   0.00008   0.47526
  26 6   C  1S         -0.03269   0.00000  -0.00013   0.01195   0.00000
  27        2S          0.10742   0.00000   0.00038  -0.03452   0.00000
  28        2PX         0.35652  -0.00011   0.00272  -0.23803   0.00000
  29        2PY        -0.00240   0.00024  -0.31774  -0.00363   0.00000
  30        2PZ         0.00011   0.36775   0.00020  -0.00007   0.00409
  31 7   H  1S         -0.12892   0.00000  -0.24294  -0.14476   0.00000
  32 8   H  1S          0.15775   0.00000   0.27103  -0.15075   0.00000
  33 9   H  1S          0.26935   0.00000  -0.00370   0.32362   0.00000
  34 10  H  1S          0.16661   0.00000  -0.26754  -0.15691   0.00000
  35 11  H  1S         -0.11872   0.00000   0.24618  -0.13916   0.00000
  36 12  H  1S         -0.29027   0.00000  -0.00306   0.26913   0.00000
                          21        22        23        24        25
                           O         V         V         V         V
     Eigenvalues --    -0.26864   0.27677   0.27731   0.51087   0.58351
   1 1   C  1S          0.00000   0.00000   0.00000   0.00000   0.05485
   2        2S          0.00000   0.00000   0.00000   0.00001  -0.34846
   3        2PX         0.00007   0.00011  -0.00017  -0.00015   0.21738
   4        2PY        -0.00015  -0.00023   0.00036   0.00032   0.29681
   5        2PZ        -0.24052  -0.35408   0.56104   0.50574  -0.00012
   6 2   C  1S          0.00000   0.00000   0.00000   0.00000   0.04717
   7        2S          0.00000   0.00000   0.00000   0.00000  -0.29720
   8        2PX        -0.00009   0.00009   0.00018   0.00016  -0.08614
   9        2PY         0.00019  -0.00020  -0.00037  -0.00034   0.23710
  10        2PZ         0.28992  -0.30233  -0.57776  -0.53534  -0.00018
  11 3   C  1S          0.00000   0.00000   0.00000   0.00000   0.04457
  12        2S          0.00000   0.00000   0.00000   0.00000  -0.27932
  13        2PX        -0.00016  -0.00020   0.00000  -0.00017  -0.19589
  14        2PY         0.00034   0.00041   0.00000   0.00035  -0.00003
  15        2PZ         0.53680   0.64540  -0.00413   0.55062  -0.00006
  16 4   C  1S          0.00000   0.00000   0.00000   0.00000   0.04716
  17        2S          0.00000   0.00000   0.00000  -0.00001  -0.29711
  18        2PX        -0.00009   0.00009  -0.00018   0.00016  -0.08625
  19        2PY         0.00019  -0.00019   0.00037  -0.00034  -0.23711
  20        2PZ         0.29690  -0.29491   0.58158  -0.53534   0.00013
  21 5   C  1S          0.00000   0.00000   0.00000   0.00000   0.05486
  22        2S          0.00000   0.00000   0.00000   0.00001  -0.34855
  23        2PX         0.00007   0.00011   0.00017  -0.00015   0.21724
  24        2PY        -0.00015  -0.00023  -0.00036   0.00032  -0.29684
  25        2PZ        -0.23314  -0.36123  -0.55647   0.50575   0.00026
  26 6   C  1S          0.00000   0.00000   0.00000   0.00000   0.06048
  27        2S          0.00000   0.00000   0.00000  -0.00001  -0.38522
  28        2PX         0.00016  -0.00020   0.00000   0.00015   0.43107
  29        2PY        -0.00034   0.00043   0.00000  -0.00032   0.00002
  30        2PZ        -0.52505   0.66814  -0.00428  -0.49141   0.00013
  31 7   H  1S          0.00000   0.00000   0.00000   0.00000   0.56329
  32 8   H  1S          0.00000   0.00000   0.00000   0.00000   0.42977
  33 9   H  1S          0.00000   0.00000   0.00000   0.00000   0.37000
  34 10  H  1S          0.00000   0.00000   0.00000   0.00000   0.42979
  35 11  H  1S          0.00000   0.00000   0.00000   0.00000   0.56329
  36 12  H  1S          0.00000   0.00000   0.00000   0.00000   0.63909
                          26        27        28        29        30
                           V         V         V         V         V
     Eigenvalues --     0.65557   0.65867   0.71792   0.73861   0.74473
   1 1   C  1S         -0.03409   0.00193   0.14315  -0.14207   0.01268
   2        2S          0.22093  -0.00941  -0.89943   0.91692  -0.09092
   3        2PX        -0.10119  -0.31717   0.20707   0.18915   0.29787
   4        2PY        -0.52071  -0.04160  -0.03169  -0.04384  -0.22133
   5        2PZ         0.00030  -0.00007   0.00009   0.00008   0.00023
   6 2   C  1S         -0.01893   0.02821  -0.06706   0.13866   0.12997
   7        2S          0.12550  -0.18205   0.41109  -0.89069  -0.82855
   8        2PX         0.10331  -0.42453  -0.09607   0.21210  -0.24464
   9        2PY        -0.46861   0.15145  -0.12600   0.11348  -0.15772
  10        2PZ         0.00033  -0.00023   0.00005  -0.00001   0.00003
  11 3   C  1S         -0.00005   0.03237   0.02887   0.00007  -0.19883
  12        2S          0.00036  -0.21108  -0.16751  -0.00046   1.26903
  13        2PX         0.00129  -0.57835  -0.01754   0.00020  -0.00694
  14        2PY        -0.33513  -0.00074   0.00009  -0.37792  -0.00019
  15        2PZ         0.00022  -0.00018   0.00000   0.00024   0.00000
  16 4   C  1S          0.01875   0.02828  -0.06705  -0.13876   0.12988
  17        2S         -0.12431  -0.18253   0.41103   0.89133  -0.82795
  18        2PX        -0.10165  -0.42506  -0.09596  -0.21185  -0.24460
  19        2PY        -0.46792  -0.15341   0.12624   0.11329   0.15778
  20        2PZ         0.00027  -0.00003  -0.00011  -0.00014  -0.00017
  21 5   C  1S          0.03415   0.00209   0.14314   0.14205   0.01278
  22        2S         -0.22132  -0.01045  -0.89936  -0.91678  -0.09155
  23        2PX         0.10239  -0.31671   0.20715  -0.18931   0.29794
  24        2PY        -0.52089   0.03940   0.03190  -0.04409   0.22111
  25        2PZ         0.00037  -0.00012   0.00005  -0.00003  -0.00005
  26 6   C  1S          0.00004  -0.02985  -0.18235   0.00003  -0.08748
  27        2S         -0.00026   0.19376   1.15256  -0.00021   0.57640
  28        2PX         0.00111  -0.50588  -0.05484  -0.00021   0.10099
  29        2PY        -0.30035  -0.00062   0.00009   0.47955   0.00015
  30        2PZ         0.00019  -0.00015  -0.00002  -0.00031   0.00003
  31 7   H  1S         -0.60066  -0.18781   0.52452  -0.38139  -0.00519
  32 8   H  1S         -0.52913   0.43737  -0.28483   0.42979   0.39996
  33 9   H  1S         -0.00149   0.70436   0.12343   0.00007  -0.63385
  34 10  H  1S          0.52705   0.43964  -0.28502  -0.43003   0.39964
  35 11  H  1S          0.60165  -0.18518   0.52433   0.38149  -0.00475
  36 12  H  1S          0.00118  -0.58309  -0.61563  -0.00007  -0.16603
                          31        32        33        34        35
                           V         V         V         V         V
     Eigenvalues --     0.88978   0.89008   0.90171   0.90212   1.09052
   1 1   C  1S          0.01368   0.02822  -0.08324   0.04020  -0.00273
   2        2S         -0.09813  -0.19911   0.59737  -0.28626   0.02018
   3        2PX        -0.52169  -0.11731  -0.30306  -0.59892   0.63769
   4        2PY        -0.52022  -0.35110   0.23463   0.47038  -0.36903
   5        2PZ         0.00017   0.00019  -0.00024  -0.00048   0.00043
   6 2   C  1S         -0.03922   0.00247  -0.07937  -0.05100  -0.00286
   7        2S          0.28063  -0.02141   0.56320   0.36576   0.02106
   8        2PX        -0.38661  -0.07096   0.47042  -0.58242   0.66647
   9        2PY         0.54157  -0.53634   0.05546  -0.31924   0.38352
  10        2PZ        -0.00047   0.00032   0.00011   0.00003  -0.00004
  11 3   C  1S         -0.00259  -0.03821   0.00593  -0.09749  -0.00002
  12        2S          0.01879   0.27713  -0.04204   0.69070   0.00014
  13        2PX        -0.05479  -0.78057  -0.01380   0.21665  -0.00003
  14        2PY         0.38084  -0.02723   0.76691   0.04729   0.78544
  15        2PZ        -0.00026  -0.00022  -0.00050   0.00004  -0.00050
  16 4   C  1S          0.03923  -0.00317   0.08503  -0.04087   0.00288
  17        2S         -0.28118   0.01902  -0.60378   0.29384  -0.02117
  18        2PX         0.37396  -0.12364  -0.39588  -0.63490  -0.66646
  19        2PY         0.61041   0.45574   0.01680   0.32463   0.38375
  20        2PZ        -0.00028  -0.00033  -0.00013  -0.00040  -0.00045
  21 5   C  1S         -0.00969   0.02982   0.07772   0.05004   0.00274
  22        2S          0.06997  -0.21060  -0.55804  -0.35688  -0.02026
  23        2PX         0.50089  -0.18927   0.37379  -0.55681  -0.63770
  24        2PY        -0.46588   0.41985   0.29065  -0.43867  -0.36886
  25        2PZ         0.00045  -0.00033  -0.00007   0.00011   0.00004
  26 6   C  1S         -0.00142  -0.01970  -0.00572   0.09340  -0.00001
  27        2S          0.01000   0.13851   0.04107  -0.67052   0.00010
  28        2PX         0.05599   0.79947   0.00499  -0.07437   0.00001
  29        2PY        -0.06557   0.00422   0.86756   0.05314  -0.72092
  30        2PZ         0.00006   0.00024  -0.00056  -0.00006   0.00046
  31 7   H  1S         -0.51035  -0.20312  -0.17408   0.18510  -0.00655
  32 8   H  1S          0.41668  -0.33315  -0.35548  -0.12221  -0.00719
  33 9   H  1S          0.03685   0.52136   0.02677  -0.43216  -0.00004
  34 10  H  1S         -0.45893  -0.27252   0.36738  -0.07856   0.00717
  35 11  H  1S          0.47686  -0.27224   0.14988   0.20553   0.00655
  36 12  H  1S          0.03868   0.55361  -0.01074   0.18101  -0.00004
                          36
                           V
     Eigenvalues --     1.15291
   1 1   C  1S          0.06097
   2        2S         -0.45856
   3        2PX        -0.33314
   4        2PY        -0.57308
   5        2PZ         0.00027
   6 2   C  1S         -0.06067
   7        2S          0.45617
   8        2PX        -0.33873
   9        2PY         0.59030
  10        2PZ        -0.00048
  11 3   C  1S          0.06043
  12        2S         -0.45435
  13        2PX         0.68975
  14        2PY         0.00015
  15        2PZ         0.00021
  16 4   C  1S         -0.06065
  17        2S          0.45604
  18        2PX        -0.33891
  19        2PY        -0.59008
  20        2PZ         0.00027
  21 5   C  1S          0.06098
  22        2S         -0.45867
  23        2PX        -0.33299
  24        2PY         0.57327
  25        2PZ        -0.00047
  26 6   C  1S         -0.06107
  27        2S          0.45940
  28        2PX         0.65450
  29        2PY         0.00012
  30        2PZ         0.00020
  31 7   H  1S         -0.26998
  32 8   H  1S          0.28699
  33 9   H  1S         -0.29617
  34 10  H  1S          0.28697
  35 11  H  1S         -0.27000
  36 12  H  1S          0.26214
     Density Matrix:
                           1         2         3         4         5
   1 1   C  1S          2.06984
   2        2S         -0.21013   0.79700
   3        2PX        -0.00098   0.00062   0.61380
   4        2PY         0.00100  -0.01216   0.00271   0.59984
   5        2PZ         0.00000   0.00001  -0.00006   0.00013   0.80588
   6 2   C  1S          0.02406  -0.06320  -0.10963  -0.00062  -0.00003
   7        2S         -0.06260   0.09548   0.28514   0.00765   0.00008
   8        2PX         0.11155  -0.29854  -0.47018   0.00607  -0.00030
   9        2PY        -0.00089   0.00826  -0.00429   0.00172   0.00032
  10        2PZ         0.00003  -0.00010  -0.00030   0.00033   0.50706
  11 3   C  1S         -0.00456   0.01466   0.02007   0.00958   0.00000
  12        2S          0.01436  -0.03798  -0.07004  -0.04165   0.00001
  13        2PX        -0.01985   0.07870   0.08008   0.01480   0.00003
  14        2PY        -0.01294   0.04285   0.05423   0.03279  -0.00003
  15        2PZ         0.00000   0.00000   0.00000  -0.00004  -0.04300
  16 4   C  1S         -0.00434   0.01521   0.00591   0.01009   0.00000
  17        2S          0.01508  -0.05177  -0.02144  -0.03638   0.00002
  18        2PX        -0.00589   0.02137  -0.03096   0.03875   0.00007
  19        2PY        -0.01031   0.03765   0.03891   0.01391  -0.00022
  20        2PZ         0.00000  -0.00002   0.00007  -0.00022  -0.34054
  21 5   C  1S         -0.00459   0.01461  -0.00156   0.02247  -0.00001
  22        2S          0.01461  -0.03864  -0.00147  -0.08375   0.00005
  23        2PX        -0.00156  -0.00147   0.01672   0.01773   0.00002
  24        2PY        -0.02247   0.08374  -0.01773   0.09270  -0.00012
  25        2PZ         0.00001  -0.00005   0.00004  -0.00011  -0.09068
  26 6   C  1S          0.02418  -0.06330   0.05560  -0.09629   0.00008
  27        2S         -0.06360   0.09787  -0.14332   0.25910  -0.00021
  28        2PX        -0.05502   0.14927  -0.11484   0.19510  -0.00031
  29        2PY         0.09552  -0.24795   0.21209  -0.35103   0.00062
  30        2PZ        -0.00008   0.00020  -0.00033   0.00061   0.50636
  31 7   H  1S         -0.10936   0.28274  -0.27982  -0.48050   0.00022
  32 8   H  1S          0.02712  -0.10060  -0.11167   0.05601  -0.00007
  33 9   H  1S         -0.01690   0.06589   0.08746   0.00240   0.00003
  34 10  H  1S         -0.00193   0.00686   0.00118   0.00451   0.00000
  35 11  H  1S         -0.01708   0.06550  -0.04180   0.07894  -0.00006
  36 12  H  1S          0.02756  -0.10033   0.11302  -0.06933   0.00008
                           6         7         8         9        10
   6 2   C  1S          2.07011
   7        2S         -0.21135   0.80169
   8        2PX        -0.00305   0.01902   0.60025
   9        2PY         0.00265  -0.02007  -0.00882   0.62764
  10        2PZ         0.00000   0.00002  -0.00005   0.00009   0.77412
  11 3   C  1S          0.02394  -0.06254  -0.05376  -0.09603   0.00005
  12        2S         -0.06224   0.09330   0.13507   0.25440  -0.00012
  13        2PX         0.05690  -0.15651  -0.11768  -0.20290  -0.00006
  14        2PY         0.09531  -0.24970  -0.20703  -0.35341   0.00049
  15        2PZ        -0.00004   0.00011  -0.00006   0.00049   0.50637
  16 4   C  1S         -0.00456   0.01450   0.00151   0.02306  -0.00001
  17        2S          0.01450  -0.03786   0.00163  -0.08607   0.00006
  18        2PX         0.00151   0.00163   0.01402  -0.02032   0.00002
  19        2PY        -0.02307   0.08609   0.02033   0.10006  -0.00007
  20        2PZ         0.00002  -0.00005   0.00000  -0.00009  -0.02720
  21 5   C  1S         -0.00434   0.01508  -0.00588   0.01031  -0.00001
  22        2S          0.01520  -0.05175   0.02135  -0.03763   0.00003
  23        2PX         0.00590  -0.02143  -0.03096  -0.03890   0.00012
  24        2PY        -0.01008   0.03637  -0.03874   0.01392  -0.00024
  25        2PZ         0.00001  -0.00003   0.00012  -0.00024  -0.34053
  26 6   C  1S         -0.00458   0.01441  -0.02088   0.01055  -0.00001
  27        2S          0.01471  -0.03833   0.07544  -0.04606   0.00005
  28        2PX         0.01806  -0.07005   0.07209  -0.01715   0.00006
  29        2PY        -0.01247   0.03932  -0.05395   0.03846  -0.00009
  30        2PZ         0.00001  -0.00005   0.00008  -0.00008  -0.07480
  31 7   H  1S          0.02710  -0.09869   0.11084   0.06421  -0.00001
  32 8   H  1S         -0.10979   0.29098   0.27349  -0.47786   0.00039
  33 9   H  1S          0.02664  -0.09885  -0.10242  -0.06330   0.00001
  34 10  H  1S         -0.01686   0.06489   0.04079   0.07929  -0.00004
  35 11  H  1S         -0.00212   0.00758  -0.00313   0.00291   0.00000
  36 12  H  1S         -0.01702   0.06436  -0.09095   0.00527  -0.00003
                          11        12        13        14        15
  11 3   C  1S          2.07025
  12        2S         -0.21201   0.80430
  13        2PX        -0.00558   0.03544   0.63980
  14        2PY         0.00000  -0.00001   0.00000   0.59528
  15        2PZ         0.00000   0.00001  -0.00004   0.00010   0.75825
  16 4   C  1S          0.02394  -0.06224   0.05691  -0.09531   0.00008
  17        2S         -0.06254   0.09331  -0.15655   0.24971  -0.00021
  18        2PX        -0.05374   0.13500  -0.11764   0.20696  -0.00032
  19        2PY         0.09603  -0.25441   0.20293  -0.35344   0.00061
  20        2PZ        -0.00008   0.00020  -0.00032   0.00062   0.50637
  21 5   C  1S         -0.00456   0.01436  -0.01985   0.01294  -0.00001
  22        2S          0.01466  -0.03794   0.07869  -0.04285   0.00005
  23        2PX         0.02007  -0.07000   0.08008  -0.05422   0.00007
  24        2PY        -0.00958   0.04165  -0.01481   0.03281  -0.00005
  25        2PZ         0.00001  -0.00005   0.00005  -0.00007  -0.04299
  26 6   C  1S         -0.00434   0.01501  -0.01196   0.00000   0.00000
  27        2S          0.01527  -0.05175   0.04376   0.00000   0.00001
  28        2PX         0.01158  -0.04165   0.03632   0.00000   0.00012
  29        2PY         0.00000   0.00000   0.00000  -0.05339  -0.00019
  30        2PZ         0.00000  -0.00001   0.00012  -0.00019  -0.34191
  31 7   H  1S         -0.01692   0.06412  -0.05041  -0.07580   0.00003
  32 8   H  1S          0.02665  -0.09802  -0.00014   0.12202  -0.00008
  33 9   H  1S         -0.10990   0.29463   0.54763   0.00001   0.00017
  34 10  H  1S          0.02665  -0.09803  -0.00014  -0.12202   0.00008
  35 11  H  1S         -0.01692   0.06410  -0.05041   0.07580  -0.00006
  36 12  H  1S         -0.00222   0.00795  -0.00388   0.00001   0.00000
                          16        17        18        19        20
  16 4   C  1S          2.07011
  17        2S         -0.21135   0.80170
  18        2PX        -0.00305   0.01903   0.60024
  19        2PY        -0.00264   0.02004   0.00883   0.62765
  20        2PZ         0.00000   0.00000  -0.00006   0.00010   0.77412
  21 5   C  1S          0.02406  -0.06260   0.11155   0.00087   0.00003
  22        2S         -0.06320   0.09548  -0.29853  -0.00821  -0.00009
  23        2PX        -0.10963   0.28515  -0.47018   0.00436  -0.00030
  24        2PY         0.00064  -0.00770  -0.00599   0.00172   0.00032
  25        2PZ        -0.00003   0.00009  -0.00029   0.00033   0.50706
  26 6   C  1S         -0.00458   0.01442  -0.02088  -0.01054   0.00000
  27        2S          0.01472  -0.03837   0.07547   0.04606  -0.00001
  28        2PX         0.01806  -0.07006   0.07209   0.01713   0.00003
  29        2PY         0.01247  -0.03932   0.05397   0.03845  -0.00006
  30        2PZ         0.00000   0.00000   0.00001  -0.00007  -0.07480
  31 7   H  1S         -0.00212   0.00759  -0.00313  -0.00292   0.00000
  32 8   H  1S         -0.01686   0.06488   0.04077  -0.07930   0.00006
  33 9   H  1S          0.02664  -0.09888  -0.10241   0.06331  -0.00007
  34 10  H  1S         -0.10978   0.29096   0.27359   0.47784  -0.00022
  35 11  H  1S          0.02709  -0.09868   0.11081  -0.06422   0.00007
  36 12  H  1S         -0.01702   0.06436  -0.09096  -0.00526  -0.00002
                          21        22        23        24        25
  21 5   C  1S          2.06984
  22        2S         -0.21013   0.79699
  23        2PX        -0.00098   0.00062   0.61380
  24        2PY        -0.00101   0.01219  -0.00271   0.59983
  25        2PZ         0.00000  -0.00001  -0.00006   0.00013   0.80587
  26 6   C  1S          0.02418  -0.06330   0.05562   0.09629  -0.00004
  27        2S         -0.06360   0.09786  -0.14340  -0.25908   0.00012
  28        2PX        -0.05502   0.14923  -0.11486  -0.19507  -0.00006
  29        2PY        -0.09552   0.24794  -0.21215  -0.35100   0.00049
  30        2PZ         0.00004  -0.00011  -0.00005   0.00049   0.50636
  31 7   H  1S         -0.01708   0.06551  -0.04181  -0.07893   0.00004
  32 8   H  1S         -0.00193   0.00685   0.00118  -0.00449   0.00000
  33 9   H  1S         -0.01690   0.06589   0.08745  -0.00241   0.00003
  34 10  H  1S          0.02712  -0.10061  -0.11169  -0.05599   0.00000
  35 11  H  1S         -0.10937   0.28278  -0.27972   0.48052  -0.00039
  36 12  H  1S          0.02756  -0.10029   0.11303   0.06932  -0.00001
                          26        27        28        29        30
  26 6   C  1S          2.06971
  27        2S         -0.20957   0.79489
  28        2PX        -0.00128  -0.00217   0.59425
  29        2PY         0.00000   0.00001   0.00000   0.61227
  30        2PZ         0.00000   0.00000  -0.00007   0.00013   0.82188
  31 7   H  1S          0.02760  -0.10141  -0.00731   0.13084  -0.00009
  32 8   H  1S         -0.01701   0.06624   0.04535  -0.07491   0.00006
  33 9   H  1S         -0.00184   0.00649   0.00467  -0.00001   0.00000
  34 10  H  1S         -0.01702   0.06626   0.04536   0.07491  -0.00003
  35 11  H  1S          0.02760  -0.10139  -0.00731  -0.13084   0.00008
  36 12  H  1S         -0.10907   0.27821  -0.55846  -0.00001  -0.00017
                          31        32        33        34        35
  31 7   H  1S          0.61659
  32 8   H  1S         -0.06911   0.58274
  33 9   H  1S         -0.03811  -0.06903   0.56619
  34 10  H  1S          0.01560  -0.03722  -0.06904   0.58276
  35 11  H  1S         -0.04077   0.01561  -0.03810  -0.06911   0.61655
  36 12  H  1S         -0.06905  -0.03987   0.01563  -0.03989  -0.06903
                          36
  36 12  H  1S          0.63384
    Full Mulliken population analysis:
                           1         2         3         4         5
   1 1   C  1S          2.06984
   2        2S         -0.05219   0.79700
   3        2PX         0.00000   0.00000   0.61380
   4        2PY         0.00000   0.00000   0.00000   0.59984
   5        2PZ         0.00000   0.00000   0.00000   0.00000   0.80588
   6 2   C  1S          0.00000  -0.00238  -0.00684   0.00000   0.00000
   7        2S         -0.00236   0.03488   0.11074   0.00000   0.00000
   8        2PX        -0.00696   0.11595   0.15421   0.00000   0.00000
   9        2PY         0.00000   0.00000   0.00000   0.00037   0.00000
  10        2PZ         0.00000   0.00000   0.00000   0.00000   0.10828
  11 3   C  1S          0.00000   0.00003   0.00007   0.00002   0.00000
  12        2S          0.00003  -0.00230  -0.00540  -0.00185   0.00000
  13        2PX         0.00007  -0.00607  -0.00668  -0.00093   0.00000
  14        2PY         0.00003  -0.00191  -0.00340  -0.00036   0.00000
  15        2PZ         0.00000   0.00000   0.00000   0.00000  -0.00109
  16 4   C  1S          0.00000   0.00001   0.00000   0.00001   0.00000
  17        2S          0.00001  -0.00134  -0.00045  -0.00131   0.00000
  18        2PX         0.00000  -0.00045   0.00025  -0.00121   0.00000
  19        2PY         0.00001  -0.00136  -0.00122  -0.00062   0.00000
  20        2PZ         0.00000   0.00000   0.00000   0.00000  -0.00340
  21 5   C  1S          0.00000   0.00003   0.00000   0.00009   0.00000
  22        2S          0.00003  -0.00234   0.00000  -0.00746   0.00000
  23        2PX         0.00000   0.00000   0.00042   0.00000   0.00000
  24        2PY         0.00009  -0.00746   0.00000  -0.01108   0.00000
  25        2PZ         0.00000   0.00000   0.00000   0.00000  -0.00229
  26 6   C  1S          0.00000  -0.00238  -0.00173  -0.00520   0.00000
  27        2S         -0.00239   0.03575   0.02783   0.08715   0.00000
  28        2PX        -0.00172   0.02899  -0.00898   0.04575   0.00000
  29        2PY        -0.00516   0.08340   0.04973   0.06761   0.00000
  30        2PZ         0.00000   0.00000   0.00000   0.00000   0.10813
  31 7   H  1S         -0.00685   0.13918   0.06550   0.19480   0.00000
  32 8   H  1S          0.00015  -0.00974  -0.01255  -0.00305   0.00000
  33 9   H  1S          0.00000   0.00043   0.00088   0.00001   0.00000
  34 10  H  1S          0.00000   0.00001   0.00000   0.00001   0.00000
  35 11  H  1S          0.00000   0.00043   0.00007   0.00084   0.00000
  36 12  H  1S          0.00015  -0.00971  -0.01169  -0.00486   0.00000
                           6         7         8         9        10
   6 2   C  1S          2.07011
   7        2S         -0.05249   0.80169
   8        2PX         0.00000   0.00000   0.60025
   9        2PY         0.00000   0.00000   0.00000   0.62764
  10        2PZ         0.00000   0.00000   0.00000   0.00000   0.77412
  11 3   C  1S          0.00000  -0.00235  -0.00168  -0.00519   0.00000
  12        2S         -0.00234   0.03409   0.02623   0.08556   0.00000
  13        2PX        -0.00178   0.03040  -0.00920   0.04758   0.00000
  14        2PY        -0.00515   0.08398   0.04855   0.06805   0.00000
  15        2PZ         0.00000   0.00000   0.00000   0.00000   0.10814
  16 4   C  1S          0.00000   0.00003   0.00000   0.00010   0.00000
  17        2S          0.00003  -0.00229   0.00000  -0.00767   0.00000
  18        2PX         0.00000   0.00000   0.00035   0.00000   0.00000
  19        2PY         0.00010  -0.00767   0.00000  -0.01197   0.00000
  20        2PZ         0.00000   0.00000   0.00000   0.00000  -0.00069
  21 5   C  1S          0.00000   0.00001   0.00000   0.00001   0.00000
  22        2S          0.00001  -0.00134  -0.00045  -0.00136   0.00000
  23        2PX         0.00000  -0.00045   0.00025  -0.00122   0.00000
  24        2PY         0.00001  -0.00131  -0.00121  -0.00062   0.00000
  25        2PZ         0.00000   0.00000   0.00000   0.00000  -0.00340
  26 6   C  1S          0.00000   0.00003   0.00008   0.00002   0.00000
  27        2S          0.00003  -0.00232  -0.00582  -0.00205   0.00000
  28        2PX         0.00006  -0.00540  -0.00601  -0.00108   0.00000
  29        2PY         0.00003  -0.00175  -0.00338  -0.00042   0.00000
  30        2PZ         0.00000   0.00000   0.00000   0.00000  -0.00189
  31 7   H  1S          0.00015  -0.00955  -0.01246  -0.00350   0.00000
  32 8   H  1S         -0.00688   0.14323   0.06401   0.19376   0.00000
  33 9   H  1S          0.00014  -0.00957  -0.01059  -0.00444   0.00000
  34 10  H  1S          0.00000   0.00042   0.00007   0.00085   0.00000
  35 11  H  1S          0.00000   0.00001   0.00001   0.00001   0.00000
  36 12  H  1S          0.00000   0.00042   0.00092   0.00002   0.00000
                          11        12        13        14        15
  11 3   C  1S          2.07025
  12        2S         -0.05266   0.80430
  13        2PX         0.00000   0.00000   0.63980
  14        2PY         0.00000   0.00000   0.00000   0.59528
  15        2PZ         0.00000   0.00000   0.00000   0.00000   0.75825
  16 4   C  1S          0.00000  -0.00234  -0.00178  -0.00515   0.00000
  17        2S         -0.00235   0.03409   0.03040   0.08399   0.00000
  18        2PX        -0.00168   0.02622  -0.00920   0.04853   0.00000
  19        2PY        -0.00519   0.08557   0.04758   0.06807   0.00000
  20        2PZ         0.00000   0.00000   0.00000   0.00000   0.10813
  21 5   C  1S          0.00000   0.00003   0.00007   0.00003   0.00000
  22        2S          0.00003  -0.00229  -0.00607  -0.00191   0.00000
  23        2PX         0.00007  -0.00540  -0.00667  -0.00340   0.00000
  24        2PY         0.00002  -0.00185  -0.00093  -0.00036   0.00000
  25        2PZ         0.00000   0.00000   0.00000   0.00000  -0.00109
  26 6   C  1S          0.00000   0.00001   0.00001   0.00000   0.00000
  27        2S          0.00001  -0.00134  -0.00182   0.00000   0.00000
  28        2PX         0.00001  -0.00174  -0.00226   0.00000   0.00000
  29        2PY         0.00000   0.00000   0.00000  -0.00053   0.00000
  30        2PZ         0.00000   0.00000   0.00000   0.00000  -0.00342
  31 7   H  1S          0.00000   0.00042   0.00042   0.00052   0.00000
  32 8   H  1S          0.00014  -0.00949   0.00000  -0.01521   0.00000
  33 9   H  1S         -0.00689   0.14503   0.25638   0.00000   0.00000
  34 10  H  1S          0.00014  -0.00949   0.00000  -0.01521   0.00000
  35 11  H  1S          0.00000   0.00042   0.00042   0.00052   0.00000
  36 12  H  1S          0.00000   0.00001   0.00001   0.00000   0.00000
                          16        17        18        19        20
  16 4   C  1S          2.07011
  17        2S         -0.05249   0.80170
  18        2PX         0.00000   0.00000   0.60024
  19        2PY         0.00000   0.00000   0.00000   0.62765
  20        2PZ         0.00000   0.00000   0.00000   0.00000   0.77412
  21 5   C  1S          0.00000  -0.00236  -0.00696   0.00000   0.00000
  22        2S         -0.00238   0.03488   0.11594   0.00000   0.00000
  23        2PX        -0.00684   0.11075   0.15421   0.00000   0.00000
  24        2PY         0.00000   0.00000   0.00000   0.00037   0.00000
  25        2PZ         0.00000   0.00000   0.00000   0.00000   0.10828
  26 6   C  1S          0.00000   0.00003   0.00008   0.00002   0.00000
  27        2S          0.00003  -0.00232  -0.00582  -0.00205   0.00000
  28        2PX         0.00007  -0.00541  -0.00601  -0.00107   0.00000
  29        2PY         0.00003  -0.00175  -0.00338  -0.00042   0.00000
  30        2PZ         0.00000   0.00000   0.00000   0.00000  -0.00189
  31 7   H  1S          0.00000   0.00001   0.00001   0.00001   0.00000
  32 8   H  1S          0.00000   0.00042   0.00007   0.00085   0.00000
  33 9   H  1S          0.00014  -0.00957  -0.01059  -0.00444   0.00000
  34 10  H  1S         -0.00688   0.14322   0.06405   0.19373   0.00000
  35 11  H  1S          0.00015  -0.00955  -0.01246  -0.00350   0.00000
  36 12  H  1S          0.00000   0.00042   0.00092   0.00002   0.00000
                          21        22        23        24        25
  21 5   C  1S          2.06984
  22        2S         -0.05219   0.79699
  23        2PX         0.00000   0.00000   0.61380
  24        2PY         0.00000   0.00000   0.00000   0.59983
  25        2PZ         0.00000   0.00000   0.00000   0.00000   0.80587
  26 6   C  1S          0.00000  -0.00238  -0.00174  -0.00520   0.00000
  27        2S         -0.00239   0.03575   0.02785   0.08714   0.00000
  28        2PX        -0.00172   0.02898  -0.00898   0.04575   0.00000
  29        2PY        -0.00516   0.08339   0.04975   0.06759   0.00000
  30        2PZ         0.00000   0.00000   0.00000   0.00000   0.10813
  31 7   H  1S          0.00000   0.00043   0.00007   0.00084   0.00000
  32 8   H  1S          0.00000   0.00001   0.00000   0.00001   0.00000
  33 9   H  1S          0.00000   0.00043   0.00088   0.00001   0.00000
  34 10  H  1S          0.00015  -0.00974  -0.01256  -0.00305   0.00000
  35 11  H  1S         -0.00685   0.13919   0.06546   0.19483   0.00000
  36 12  H  1S          0.00015  -0.00971  -0.01169  -0.00486   0.00000
                          26        27        28        29        30
  26 6   C  1S          2.06971
  27        2S         -0.05205   0.79489
  28        2PX         0.00000   0.00000   0.59425
  29        2PY         0.00000   0.00000   0.00000   0.61227
  30        2PZ         0.00000   0.00000   0.00000   0.00000   0.82188
  31 7   H  1S          0.00015  -0.00982  -0.00007  -0.01631   0.00000
  32 8   H  1S          0.00000   0.00043   0.00038   0.00051   0.00000
  33 9   H  1S          0.00000   0.00001   0.00002   0.00000   0.00000
  34 10  H  1S          0.00000   0.00043   0.00038   0.00051   0.00000
  35 11  H  1S          0.00015  -0.00981  -0.00007  -0.01630   0.00000
  36 12  H  1S         -0.00683   0.13695   0.26145   0.00000   0.00000
                          31        32        33        34        35
  31 7   H  1S          0.61659
  32 8   H  1S         -0.00351   0.58274
  33 9   H  1S         -0.00003  -0.00351   0.56619
  34 10  H  1S          0.00000  -0.00003  -0.00351   0.58276
  35 11  H  1S         -0.00003   0.00000  -0.00003  -0.00351   0.61655
  36 12  H  1S         -0.00351  -0.00003   0.00000  -0.00003  -0.00351
                          36
  36 12  H  1S          0.63384
     Gross orbital populations:
                           1
   1 1   C  1S          1.99276
   2        2S          1.13645
   3        2PX         0.96458
   4        2PY         0.95855
   5        2PZ         1.01551
   6 2   C  1S          1.99280
   7        2S          1.14108
   8        2PX         0.95311
   9        2PY         0.98446
  10        2PZ         0.98455
  11 3   C  1S          1.99281
  12        2S          1.14350
  13        2PX         0.99978
  14        2PY         0.94496
  15        2PZ         0.96893
  16 4   C  1S          1.99280
  17        2S          1.14108
  18        2PX         0.95310
  19        2PY         0.98446
  20        2PZ         0.98456
  21 5   C  1S          1.99276
  22        2S          1.13645
  23        2PX         0.96459
  24        2PY         0.95855
  25        2PZ         1.01550
  26 6   C  1S          1.99275
  27        2S          1.13423
  28        2PX         0.95558
  29        2PY         0.96023
  30        2PZ         1.03095
  31 7   H  1S          0.95346
  32 8   H  1S          0.92272
  33 9   H  1S          0.90739
  34 10  H  1S          0.92273
  35 11  H  1S          0.95344
  36 12  H  1S          0.96884
          Condensed to atoms (all electrons):
               1          2          3          4          5          6
     1  C    4.781970   0.505889  -0.029745  -0.011076  -0.029973   0.506769
     2  C    0.505889   4.768817   0.504899  -0.029681  -0.011067  -0.029879
     3  C   -0.029745   0.504899   4.762569   0.504900  -0.029732  -0.011079
     4  C   -0.011076  -0.029681   0.504900   4.768836   0.505890  -0.029892
     5  C   -0.029973  -0.011067  -0.029732   0.505890   4.781954   0.506766
     6  C    0.506769  -0.029879  -0.011079  -0.029892   0.506766   4.788900
     7  H    0.392633  -0.025368   0.001358   0.000028   0.001341  -0.026039
     8  H   -0.025197   0.394116  -0.024546   0.001339   0.000028   0.001323
     9  H    0.001322  -0.024452   0.394521  -0.024459   0.001322   0.000028
    10  H    0.000028   0.001339  -0.024551   0.394113  -0.025202   0.001323
    11  H    0.001341   0.000028   0.001357  -0.025363   0.392637  -0.026034
    12  H   -0.026113   0.001358   0.000028   0.001359  -0.026106   0.391558
               7          8          9         10         11         12
     1  C    0.392633  -0.025197   0.001322   0.000028   0.001341  -0.026113
     2  C   -0.025368   0.394116  -0.024452   0.001339   0.000028   0.001358
     3  C    0.001358  -0.024546   0.394521  -0.024551   0.001357   0.000028
     4  C    0.000028   0.001339  -0.024459   0.394113  -0.025363   0.001359
     5  C    0.001341   0.000028   0.001322  -0.025202   0.392637  -0.026106
     6  C   -0.026039   0.001323   0.000028   0.001323  -0.026034   0.391558
     7  H    0.616587  -0.003513  -0.000030   0.000002  -0.000032  -0.003510
     8  H   -0.003513   0.582735  -0.003508  -0.000029   0.000002  -0.000032
     9  H   -0.000030  -0.003508   0.566187  -0.003510  -0.000030   0.000002
    10  H    0.000002  -0.000029  -0.003510   0.582760  -0.003513  -0.000032
    11  H   -0.000032   0.000002  -0.000030  -0.003513   0.616554  -0.003508
    12  H   -0.003510  -0.000032   0.000002  -0.000032  -0.003508   0.633837
 Mulliken charges:
               1
     1  C   -0.067849
     2  C   -0.056000
     3  C   -0.049978
     4  C   -0.055994
     5  C   -0.067856
     6  C   -0.073744
     7  H    0.046543
     8  H    0.077282
     9  H    0.092607
    10  H    0.077270
    11  H    0.046561
    12  H    0.031158
 Sum of Mulliken charges =   0.00000
 Mulliken charges with hydrogens summed into heavy atoms:
               1
     1  C   -0.021306
     2  C    0.021282
     3  C    0.042629
     4  C    0.021276
     5  C   -0.021295
     6  C   -0.042586
 Electronic spatial extent (au):  <R**2>=            650.6914
 Charge=              0.0000 electrons
 Dipole moment (field-independent basis, Debye):
    X=              1.1740    Y=              0.0000    Z=              0.0003  Tot=              1.1740
 Quadrupole moment (field-independent basis, Debye-Ang):
   XX=            -30.0231   YY=            -31.1784   ZZ=            -35.1190
   XY=              1.2078   XZ=              0.0008   YZ=             -0.0022
 Traceless Quadrupole moment (field-independent basis, Debye-Ang):
   XX=              2.0837   YY=              0.9285   ZZ=             -3.0122
   XY=              1.2078   XZ=              0.0008   YZ=             -0.0022
 Octapole moment (field-independent basis, Debye-Ang**2):
  XXX=            -39.8218  YYY=            -96.2457  ZZZ=              0.0522  XYY=            -12.3162
  XXY=            -30.8933  XXZ=              0.0174  XZZ=            -16.9374  YZZ=            -36.1367
  YYZ=              0.0110  XYZ=             -0.0014
 Hexadecapole moment (field-independent basis, Debye-Ang**3):
 XXXX=           -295.6703 YYYY=           -459.5000 ZZZZ=            -28.5340 XXXY=            -40.9686
 XXXZ=             -0.0078 YYYX=            -40.5749 YYYZ=              0.1050 ZZZX=             -0.0156
 ZZZY=              0.1394 XXYY=           -124.7251 XXZZ=            -62.1676 YYZZ=            -91.1855
 XXYZ=              0.0377 YYXZ=             -0.0068 ZZXY=            -17.4263
 N-N= 2.025334968734D+02 E-N=-9.362834647293D+02  KE= 2.259259481159D+02
 Orbital energies and kinetic energies (alpha):
                                 1                 2
   1         O               -11.025574         15.640637
   2         O               -11.022597         15.638647
   3         O               -11.022525         15.637569
   4         O               -11.016573         15.637827
   5         O               -11.016533         15.641652
   6         O               -11.013553         15.637087
   7         O                -1.078275          1.373342
   8         O                -0.943761          1.500966
   9         O                -0.943551          1.499971
  10         O                -0.756566          1.339963
  11         O                -0.756165          1.341813
  12         O                -0.651241          0.857218
  13         O                -0.584955          1.245138
  14         O                -0.541905          1.305446
  15         O                -0.523709          1.142040
  16         O                -0.522889          1.139909
  17         O                -0.445193          1.086193
  18         O                -0.422209          1.326001
  19         O                -0.421493          1.325784
  20         O                -0.269374          1.323350
  21         O                -0.268644          1.322419
  22         V                 0.276775          1.821434
  23         V                 0.277312          1.820743
  24         V                 0.510871          2.159737
  25         V                 0.583510          2.007985
  26         V                 0.655575          2.131009
  27         V                 0.658668          2.125182
  28         V                 0.717923          3.110812
  29         V                 0.738608          3.220116
  30         V                 0.744732          3.209391
  31         V                 0.889778          2.751804
  32         V                 0.890081          2.751477
  33         V                 0.901705          3.140867
  34         V                 0.902118          3.139821
  35         V                 1.090516          3.350873
  36         V                 1.152909          3.561152
 Total kinetic energy from orbitals= 2.259259481159D+02
 Unable to Open any file for archive entry.
 1\1\GINC-MEDUSA\SP\RHF\STO-3G\C6H6\PLESTRAN\26-Oct-2015\0\\# hf/sto-3G
  gfinput pop=full nosymm Field=X-100\\Benzene STO-3G\\0,1\C,0,-0.20698
 51582,-0.182179772,0.0000714421\C,0,1.1916738876,-0.1823529436,0.00049
 85861\C,0,1.8910553573,1.0288676731,-0.0000660445\C,0,1.1917349868,2.2
 401336715,-0.0010564977\C,0,-0.206924055,2.2403068493,-0.0014838269\C,
 0,-0.9063055337,1.0290862369,-0.0009191682\H,0,-0.750746176,-1.1238955
 859,0.0005098114\H,0,1.7352854346,-1.124149144,0.0012705069\H,0,2.9784
 784245,1.0289339946,0.0002669247\H,0,1.7354959994,3.1818494841,-0.0014
 954845\H,0,-0.7505356043,3.1821030485,-0.0022553738\H,0,-1.9937286031,
 1.0290199075,-0.0012518757\\Version=ES64L-GDVRevI.03+\HF=-227.892546\E
 FC=0.\RMSD=2.109e-09\Dipole=0.4618926,-0.0000064,0.0001229\Quadrupole=
 1.5491836,0.6902809,-2.2394644,0.8979402,0.0005801,-0.0016438\PG=CI [X
 (C6H6)]\\@
 The archive entry for this job was punched.


 ON INDUCTION, OR "WHY DO YOU BELIEVE THE SUN WILL RISE TOMORROW?":

 ... THE FARMER WHO HAS FED THE CHICKEN EVERY DAY THROUGHOUT ITS
 LIFE AT LAST WRINGS ITS NECK INSTEAD, SHOWING THAT MORE REFINED VIEWS
 AS TO THE UNIFORMITY OF NATURE WOULD HAVE BEEN USEFUL TO THE CHICKEN.

                               -- BERTRAND RUSSELL
 Job cpu time:       0 days  0 hours  0 minutes  0.9 seconds.
 Elapsed time:       0 days  0 hours  0 minutes  0.7 seconds.
 File lengths (MBytes):  RWF=      5 Int=      0 D2E=      0 Chk=      1 Scr=      1
 Normal termination of Gaussian DV at Mon Oct 26 18:16:00 2015.
