 Entering Gaussian System, Link 0=gdv
 Input=benzene_6-31G_field.com
 Output=benzene_6-31G_field.log
 Initial command:
 /home/gauss/gdvi03p/gdv/l1.exe "/home/GauScr/Gau-10792.inp" -scrdir="/home/GauScr/"
 Entering Link 1 = /home/gauss/gdvi03p/gdv/l1.exe PID=     10793.
  
 Copyright (c) 1988,1990,1992,1993,1995,1998,2003,2009,2015,
            Gaussian, Inc.  All Rights Reserved.
  
 This is the private, development version of
 the Gaussian(R) DV system of programs. It is based on
 the Gaussian(R) 09 system (copyright 2009, Gaussian, Inc.),
 the Gaussian(R) 03 system (copyright 2003, Gaussian, Inc.),
 the Gaussian(R) 98 system (copyright 1998, Gaussian, Inc.),
 the Gaussian(R) 94 system (copyright 1995, Gaussian, Inc.),
 the Gaussian 92(TM) system (copyright 1992, Gaussian, Inc.),
 the Gaussian 90(TM) system (copyright 1990, Gaussian, Inc.),
 the Gaussian 88(TM) system (copyright 1988, Gaussian, Inc.),
 the Gaussian 86(TM) system (copyright 1986, Carnegie Mellon
 University), and the Gaussian 82(TM) system (copyright 1983,
 Carnegie Mellon University). Gaussian is a federally registered
 trademark of Gaussian, Inc.
  
 This software contains proprietary and confidential information,
 including trade secrets, belonging to Gaussian, Inc.
  
 This software is provided under written license and may be
 used, copied, transmitted, or stored only in accord with that
 written license.
  
 The following legend is applicable only to US Government
 contracts under FAR:
  
                    RESTRICTED RIGHTS LEGEND
  
 Use, reproduction and disclosure by the US Government is
 subject to restrictions as set forth in subparagraphs (a)
 and (c) of the Commercial Computer Software - Restricted
 Rights clause in FAR 52.227-19.
  
 Gaussian, Inc.
 340 Quinnipiac St., Bldg. 40, Wallingford CT 06492
  
  
 ---------------------------------------------------------------
 Warning -- This program may not be used in any manner that
 competes with the business of Gaussian, Inc. or will provide
 assistance to any competitor of Gaussian, Inc.  The licensee
 of this program is prohibited from giving any competitor of
 Gaussian, Inc. access to this program.  By using this program,
 the user acknowledges that Gaussian, Inc. is engaged in the
 business of creating and licensing software in the field of
 computational chemistry and represents and warrants to the
 licensee that it is not a competitor of Gaussian, Inc. and that
 it will not use this program in any manner prohibited above.
 ---------------------------------------------------------------
  

 Cite this work as:
 Gaussian Development Version, Revision I.03+,
 M. J. Frisch, G. W. Trucks, H. B. Schlegel, G. E. Scuseria, 
 M. A. Robb, J. R. Cheeseman, G. Scalmani, V. Barone, B. Mennucci, 
 G. A. Petersson, H. Nakatsuji, M. Caricato, X. Li, H. P. Hratchian, 
 J. Bloino, B. G. Janesko, A. F. Izmaylov, A. Marenich, F. Lipparini, 
 G. Zheng, J. L. Sonnenberg, W. Liang, M. Hada, M. Ehara, K. Toyota, 
 R. Fukuda, J. Hasegawa, M. Ishida, T. Nakajima, Y. Honda, O. Kitao, 
 H. Nakai, T. Vreven, K. Throssell, J. A. Montgomery, Jr., 
 J. E. Peralta, F. Ogliaro, M. Bearpark, J. J. Heyd, E. Brothers, 
 K. N. Kudin, V. N. Staroverov, T. Keith, R. Kobayashi, J. Normand, 
 K. Raghavachari, A. Rendell, J. C. Burant, S. S. Iyengar, J. Tomasi, 
 M. Cossi, N. Rega, J. M. Millam, M. Klene, J. E. Knox, J. B. Cross, 
 V. Bakken, C. Adamo, J. Jaramillo, R. Gomperts, R. E. Stratmann, 
 O. Yazyev, A. J. Austin, R. Cammi, C. Pomelli, J. W. Ochterski, 
 R. L. Martin, K. Morokuma, V. G. Zakrzewski, G. A. Voth, 
 P. Salvador, J. J. Dannenberg, S. Dapprich, P. V. Parandekar, 
 N. J. Mayhall, A. D. Daniels, O. Farkas, J. B. Foresman, 
 J. V. Ortiz, J. Cioslowski, and D. J. Fox, 
 Gaussian, Inc., Wallingford CT, 2014.
 
 *******************************************
 Gaussian DV:  ES64L-GDVRevI.03+  2-May-2015
                 26-Oct-2015 
 *******************************************
 ----------------------------------------------
 # hf/6-31G gfinput pop=full nosymm Field=X-100
 ----------------------------------------------
 1/38=1,172=1/1;
 2/12=2,15=1,17=6,18=5,40=1/2;
 3/5=1,6=6,11=9,14=1,15=-100,24=10,25=1,30=1/1,2,3;
 4//1;
 5/5=2,38=5/2;
 6/7=3,28=1/1;
 99/5=1,9=1/99;
 -------------
 Benzene 6-31G
 -------------
 Symbolic Z-matrix:
 Charge =  0 Multiplicity = 1
 C                    -0.20699  -0.18218   0.00007 
 C                     1.19167  -0.18235   0.0005 
 C                     1.89106   1.02887  -0.00007 
 C                     1.19173   2.24013  -0.00106 
 C                    -0.20692   2.24031  -0.00148 
 C                    -0.90631   1.02909  -0.00092 
 H                    -0.75075  -1.1239    0.00051 
 H                     1.73529  -1.12415   0.00127 
 H                     2.97848   1.02893   0.00027 
 H                     1.7355    3.18185  -0.0015 
 H                    -0.75054   3.1821   -0.00226 
 H                    -1.99373   1.02902  -0.00125 
 
                          Input orientation:                          
 ---------------------------------------------------------------------
 Center     Atomic      Atomic             Coordinates (Angstroms)
 Number     Number       Type             X           Y           Z
 ---------------------------------------------------------------------
      1          6           0       -0.206985   -0.182180    0.000071
      2          6           0        1.191674   -0.182353    0.000499
      3          6           0        1.891055    1.028868   -0.000066
      4          6           0        1.191735    2.240134   -0.001056
      5          6           0       -0.206924    2.240307   -0.001484
      6          6           0       -0.906306    1.029086   -0.000919
      7          1           0       -0.750746   -1.123896    0.000510
      8          1           0        1.735285   -1.124149    0.001271
      9          1           0        2.978478    1.028934    0.000267
     10          1           0        1.735496    3.181849   -0.001495
     11          1           0       -0.750536    3.182103   -0.002255
     12          1           0       -1.993729    1.029020   -0.001252
 ---------------------------------------------------------------------
                    Distance matrix (angstroms):
                    1          2          3          4          5
     1  C    0.000000
     2  C    1.398659   0.000000
     3  C    2.422480   1.398639   0.000000
     4  C    2.797145   2.422487   1.398648   0.000000
     5  C    2.422487   2.797385   2.422623   1.398659   0.000000
     6  C    1.398648   2.422623   2.797361   2.422480   1.398639
     7  H    1.087430   2.158587   3.407859   3.884576   3.407874
     8  H    2.158639   1.087425   2.158645   3.407910   3.884810
     9  H    3.407928   2.158677   1.087423   2.158578   3.407964
    10  H    3.884576   3.407874   2.158595   1.087430   2.158587
    11  H    3.407910   3.884810   3.407995   2.158639   1.087425
    12  H    2.158578   3.407964   3.884784   3.407928   2.158677
                    6          7          8          9         10
     6  C    0.000000
     7  H    2.158595   0.000000
     8  H    3.407995   2.486032   0.000000
     9  H    3.884784   4.306018   2.486221   0.000000
    10  H    3.407859   4.972006   4.306000   2.485971   0.000000
    11  H    2.158645   4.306000   4.972236   4.306006   2.486032
    12  H    1.087423   2.485971   4.306006   4.972207   4.306018
                   11         12
    11  H    0.000000
    12  H    2.486221   0.000000
 Symmetry turned off by external request.
 Stoichiometry    C6H6
 Framework group  CI[X(C6H6)]
 Deg. of freedom    15
 Full point group                 CI      NOp   2
 Rotational constants (GHZ):      5.6717105      5.6710222      2.8356832
 Standard basis: 6-31G (6D, 7F)
 The following finite field(s) will be applied:
 An electric field of             -0.0100  0.0000  0.0000
 AO basis set in the form of general basis input (Overlap normalization):
      1 0
 S   6 1.00       0.000000000000
      0.3047524880D+04  0.1834737132D-02
      0.4573695180D+03  0.1403732281D-01
      0.1039486850D+03  0.6884262226D-01
      0.2921015530D+02  0.2321844432D+00
      0.9286662960D+01  0.4679413484D+00
      0.3163926960D+01  0.3623119853D+00
 SP   3 1.00       0.000000000000
      0.7868272350D+01 -0.1193324198D+00  0.6899906659D-01
      0.1881288540D+01 -0.1608541517D+00  0.3164239610D+00
      0.5442492580D+00  0.1143456438D+01  0.7443082909D+00
 SP   1 1.00       0.000000000000
      0.1687144782D+00  0.1000000000D+01  0.1000000000D+01
 ****
      2 0
 S   6 1.00       0.000000000000
      0.3047524880D+04  0.1834737132D-02
      0.4573695180D+03  0.1403732281D-01
      0.1039486850D+03  0.6884262226D-01
      0.2921015530D+02  0.2321844432D+00
      0.9286662960D+01  0.4679413484D+00
      0.3163926960D+01  0.3623119853D+00
 SP   3 1.00       0.000000000000
      0.7868272350D+01 -0.1193324198D+00  0.6899906659D-01
      0.1881288540D+01 -0.1608541517D+00  0.3164239610D+00
      0.5442492580D+00  0.1143456438D+01  0.7443082909D+00
 SP   1 1.00       0.000000000000
      0.1687144782D+00  0.1000000000D+01  0.1000000000D+01
 ****
      3 0
 S   6 1.00       0.000000000000
      0.3047524880D+04  0.1834737132D-02
      0.4573695180D+03  0.1403732281D-01
      0.1039486850D+03  0.6884262226D-01
      0.2921015530D+02  0.2321844432D+00
      0.9286662960D+01  0.4679413484D+00
      0.3163926960D+01  0.3623119853D+00
 SP   3 1.00       0.000000000000
      0.7868272350D+01 -0.1193324198D+00  0.6899906659D-01
      0.1881288540D+01 -0.1608541517D+00  0.3164239610D+00
      0.5442492580D+00  0.1143456438D+01  0.7443082909D+00
 SP   1 1.00       0.000000000000
      0.1687144782D+00  0.1000000000D+01  0.1000000000D+01
 ****
      4 0
 S   6 1.00       0.000000000000
      0.3047524880D+04  0.1834737132D-02
      0.4573695180D+03  0.1403732281D-01
      0.1039486850D+03  0.6884262226D-01
      0.2921015530D+02  0.2321844432D+00
      0.9286662960D+01  0.4679413484D+00
      0.3163926960D+01  0.3623119853D+00
 SP   3 1.00       0.000000000000
      0.7868272350D+01 -0.1193324198D+00  0.6899906659D-01
      0.1881288540D+01 -0.1608541517D+00  0.3164239610D+00
      0.5442492580D+00  0.1143456438D+01  0.7443082909D+00
 SP   1 1.00       0.000000000000
      0.1687144782D+00  0.1000000000D+01  0.1000000000D+01
 ****
      5 0
 S   6 1.00       0.000000000000
      0.3047524880D+04  0.1834737132D-02
      0.4573695180D+03  0.1403732281D-01
      0.1039486850D+03  0.6884262226D-01
      0.2921015530D+02  0.2321844432D+00
      0.9286662960D+01  0.4679413484D+00
      0.3163926960D+01  0.3623119853D+00
 SP   3 1.00       0.000000000000
      0.7868272350D+01 -0.1193324198D+00  0.6899906659D-01
      0.1881288540D+01 -0.1608541517D+00  0.3164239610D+00
      0.5442492580D+00  0.1143456438D+01  0.7443082909D+00
 SP   1 1.00       0.000000000000
      0.1687144782D+00  0.1000000000D+01  0.1000000000D+01
 ****
      6 0
 S   6 1.00       0.000000000000
      0.3047524880D+04  0.1834737132D-02
      0.4573695180D+03  0.1403732281D-01
      0.1039486850D+03  0.6884262226D-01
      0.2921015530D+02  0.2321844432D+00
      0.9286662960D+01  0.4679413484D+00
      0.3163926960D+01  0.3623119853D+00
 SP   3 1.00       0.000000000000
      0.7868272350D+01 -0.1193324198D+00  0.6899906659D-01
      0.1881288540D+01 -0.1608541517D+00  0.3164239610D+00
      0.5442492580D+00  0.1143456438D+01  0.7443082909D+00
 SP   1 1.00       0.000000000000
      0.1687144782D+00  0.1000000000D+01  0.1000000000D+01
 ****
      7 0
 S   3 1.00       0.000000000000
      0.1873113696D+02  0.3349460434D-01
      0.2825394365D+01  0.2347269535D+00
      0.6401216923D+00  0.8137573261D+00
 S   1 1.00       0.000000000000
      0.1612777588D+00  0.1000000000D+01
 ****
      8 0
 S   3 1.00       0.000000000000
      0.1873113696D+02  0.3349460434D-01
      0.2825394365D+01  0.2347269535D+00
      0.6401216923D+00  0.8137573261D+00
 S   1 1.00       0.000000000000
      0.1612777588D+00  0.1000000000D+01
 ****
      9 0
 S   3 1.00       0.000000000000
      0.1873113696D+02  0.3349460434D-01
      0.2825394365D+01  0.2347269535D+00
      0.6401216923D+00  0.8137573261D+00
 S   1 1.00       0.000000000000
      0.1612777588D+00  0.1000000000D+01
 ****
     10 0
 S   3 1.00       0.000000000000
      0.1873113696D+02  0.3349460434D-01
      0.2825394365D+01  0.2347269535D+00
      0.6401216923D+00  0.8137573261D+00
 S   1 1.00       0.000000000000
      0.1612777588D+00  0.1000000000D+01
 ****
     11 0
 S   3 1.00       0.000000000000
      0.1873113696D+02  0.3349460434D-01
      0.2825394365D+01  0.2347269535D+00
      0.6401216923D+00  0.8137573261D+00
 S   1 1.00       0.000000000000
      0.1612777588D+00  0.1000000000D+01
 ****
     12 0
 S   3 1.00       0.000000000000
      0.1873113696D+02  0.3349460434D-01
      0.2825394365D+01  0.2347269535D+00
      0.6401216923D+00  0.8137573261D+00
 S   1 1.00       0.000000000000
      0.1612777588D+00  0.1000000000D+01
 ****

    66 basis functions,   156 primitive gaussians,    66 cartesian basis functions
    21 alpha electrons       21 beta electrons
       nuclear repulsion energy       202.9242874433 Hartrees.
 NAtoms=   12 NActive=   12 NUniq=   12 SFac= 1.00D+00 NAtFMM=   60 NAOKFM=F Big=F
 Integral buffers will be    131072 words long.
 Raffenetti 1 integral format.
 Two-electron integral symmetry is turned off.
 One-electron integrals computed using PRISM.
 NBasis=    66 RedAO= T EigKep=  7.12D-04  NBF=    66
 NBsUse=    66 1.00D-06 EigRej= -1.00D+00 NBFU=    66
 The nuclear repulsion energy is now       202.5334968734 hartrees.
 ExpMin= 1.61D-01 ExpMax= 3.05D+03 ExpMxC= 4.57D+02 IAcc=1 IRadAn=         1 AccDes= 0.00D+00
 Harris functional with IExCor=  205 and IRadAn=       1 diagonalized for initial guess.
 HarFok:  IExCor=  205 AccDes= 0.00D+00 IRadAn=         1 IDoV= 1 UseB2=F ITyADJ=14
 ICtDFT=  3500011 ScaDFX=  1.000000  1.000000  1.000000  1.000000
 FoFCou: FMM=F IPFlag=           0 FMFlag=      100000 FMFlg1=           0
         NFxFlg=           0 DoJE=T BraDBF=F KetDBF=T FulRan=T
         wScrn=  0.000000 ICntrl=       500 IOpCl=  0 I1Cent=   200000004 NGrid=           0
         NMat0=    1 NMatS0=      1 NMatT0=    0 NMatD0=    1 NMtDS0=    0 NMtDT0=    0
 Symmetry not used in FoFCou.
 Keep R1 ints in memory in canonical form, NReq=3289403.
 Requested convergence on RMS density matrix=1.00D-08 within 128 cycles.
 Requested convergence on MAX density matrix=1.00D-06.
 Requested convergence on             energy=1.00D-06.
 No special actions if energy rises.
 SCF Done:  E(RHF) =  -230.626417620     A.U. after   12 cycles
            NFock= 12  Conv=0.62D-08     -V/T= 2.0001

 **********************************************************************

            Population analysis using the SCF density.

 **********************************************************************

 Alpha  occ. eigenvalues --  -11.23912 -11.23459 -11.23444 -11.22585 -11.22571
 Alpha  occ. eigenvalues --  -11.22127  -1.14045  -1.00366  -1.00349  -0.81121
 Alpha  occ. eigenvalues --   -0.81097  -0.69843  -0.62852  -0.60584  -0.57566
 Alpha  occ. eigenvalues --   -0.57498  -0.48907  -0.47700  -0.47639  -0.32377
 Alpha  occ. eigenvalues --   -0.32299
 Alpha virt. eigenvalues --    0.15372   0.15444   0.23173   0.29171   0.29757
 Alpha virt. eigenvalues --    0.32339   0.34419   0.36651   0.36922   0.47512
 Alpha virt. eigenvalues --    0.47657   0.50558   0.50592   0.69247   0.76294
 Alpha virt. eigenvalues --    0.77805   0.77818   0.79121   0.84355   0.85359
 Alpha virt. eigenvalues --    0.85456   0.88035   0.88038   0.90772   0.90949
 Alpha virt. eigenvalues --    0.92381   0.92524   1.00105   1.12690   1.13818
 Alpha virt. eigenvalues --    1.15185   1.17334   1.17515   1.25250   1.27002
 Alpha virt. eigenvalues --    1.27962   1.28771   1.36660   1.36760   1.44390
 Alpha virt. eigenvalues --    1.44394   1.48375   1.73213   1.73223   2.17218
     Molecular Orbital Coefficients:
                           1         2         3         4         5
                           O         O         O         O         O
     Eigenvalues --   -11.23912 -11.23459 -11.23444 -11.22585 -11.22571
   1 1   C  1S          0.12246  -0.69302   0.70210  -0.04599   0.04557
   2        2S          0.00204  -0.01745   0.01800  -0.00215   0.00169
   3        2PX         0.00007   0.00000   0.00009  -0.00022   0.00013
   4        2PY        -0.00019  -0.00028   0.00016  -0.00010   0.00001
   5        2PZ         0.00000   0.00000   0.00000   0.00000   0.00000
   6        3S          0.00626   0.01168  -0.01897   0.00977  -0.00498
   7        3PX         0.00018   0.00093  -0.00256   0.00352  -0.00196
   8        3PY         0.00393   0.00184  -0.00537   0.00350  -0.00083
   9        3PZ         0.00000   0.00000   0.00000   0.00000   0.00000
  10 2   C  1S          0.00472  -0.04566   0.04541   0.70701  -0.68735
  11        2S          0.00006  -0.00061   0.00015   0.01788  -0.01740
  12        2PX         0.00015  -0.00011   0.00013  -0.00028   0.00016
  13        2PY        -0.00001  -0.00002  -0.00008   0.00015  -0.00034
  14        2PZ         0.00000   0.00000   0.00000   0.00000   0.00000
  15        3S         -0.00253  -0.00333   0.00872  -0.01703   0.01214
  16        3PX         0.00057   0.00179  -0.00352   0.00296  -0.00136
  17        3PY        -0.00140  -0.00059   0.00354  -0.00430   0.00201
  18        3PZ         0.00000   0.00000   0.00000   0.00000   0.00000
  19 3   C  1S         -0.00045   0.00005   0.00365   0.17827   0.00409
  20        2S         -0.00029   0.00000   0.00021   0.00298   0.00007
  21        2PX         0.00008   0.00000   0.00008   0.00012   0.00000
  22        2PY         0.00000  -0.00018   0.00000   0.00000  -0.00020
  23        2PZ         0.00000   0.00000   0.00000   0.00000   0.00000
  24        3S          0.00254  -0.00008  -0.00558   0.01002   0.00022
  25        3PX        -0.00168   0.00005   0.00327  -0.00566  -0.00012
  26        3PY         0.00000   0.00011   0.00000  -0.00006   0.00254
  27        3PZ         0.00000   0.00000   0.00000   0.00000   0.00000
  28 4   C  1S          0.00472   0.04687   0.04404   0.67574   0.71810
  29        2S          0.00006   0.00061   0.00014   0.01709   0.01817
  30        2PX         0.00015   0.00011   0.00013  -0.00027  -0.00017
  31        2PY         0.00001  -0.00002   0.00008  -0.00013  -0.00034
  32        2PZ         0.00000   0.00000   0.00000   0.00000   0.00000
  33        3S         -0.00253   0.00358   0.00863  -0.01647  -0.01288
  34        3PX         0.00057  -0.00189  -0.00347   0.00290   0.00149
  35        3PY         0.00140  -0.00069  -0.00352   0.00421   0.00220
  36        3PZ         0.00000   0.00000   0.00000   0.00000   0.00000
  37 5   C  1S          0.12259   0.71259   0.68221  -0.04386  -0.04751
  38        2S          0.00204   0.01795   0.01750  -0.00207  -0.00178
  39        2PX         0.00007   0.00000   0.00009  -0.00021  -0.00014
  40        2PY         0.00019  -0.00029  -0.00016   0.00010   0.00002
  41        2PZ         0.00000   0.00000   0.00000   0.00000   0.00000
  42        3S          0.00626  -0.01222  -0.01863   0.00953   0.00541
  43        3PX         0.00018  -0.00100  -0.00253   0.00343   0.00212
  44        3PY        -0.00393   0.00199   0.00532  -0.00346  -0.00098
  45        3PZ         0.00000   0.00000   0.00000   0.00000   0.00000
  46 6   C  1S          0.98089  -0.00255  -0.17395   0.00465   0.00010
  47        2S          0.02458  -0.00009  -0.00592   0.00031   0.00001
  48        2PX         0.00017   0.00000  -0.00027  -0.00009   0.00000
  49        2PY         0.00000  -0.00025   0.00000   0.00000  -0.00015
  50        2PZ         0.00000   0.00000   0.00000   0.00000   0.00000
  51        3S         -0.01872   0.00024   0.01668  -0.00611  -0.00013
  52        3PX        -0.00417   0.00010   0.00700  -0.00324  -0.00007
  53        3PY         0.00000   0.00265  -0.00004   0.00001  -0.00024
  54        3PZ         0.00000   0.00000   0.00000   0.00000   0.00000
  55 7   H  1S         -0.00005   0.00024  -0.00030   0.00007   0.00004
  56        2S          0.00101  -0.00109   0.00047   0.00099  -0.00015
  57 8   H  1S         -0.00004   0.00007   0.00004  -0.00029   0.00022
  58        2S         -0.00019  -0.00030   0.00118   0.00055  -0.00095
  59 9   H  1S          0.00006   0.00000  -0.00008  -0.00005   0.00000
  60        2S          0.00049  -0.00001  -0.00056   0.00156   0.00003
  61 10  H  1S         -0.00004  -0.00007   0.00005  -0.00028  -0.00023
  62        2S         -0.00019   0.00033   0.00117   0.00051   0.00097
  63 11  H  1S         -0.00005  -0.00025  -0.00029   0.00007  -0.00004
  64        2S          0.00101   0.00111   0.00044   0.00098   0.00020
  65 12  H  1S         -0.00039   0.00000   0.00006  -0.00004   0.00000
  66        2S          0.00145   0.00001   0.00104  -0.00048  -0.00001
                           6         7         8         9        10
                           O         O         O         O         O
     Eigenvalues --   -11.22127  -1.14045  -1.00366  -1.00349  -0.81121
   1 1   C  1S          0.00570  -0.09540   0.11179   0.06283   0.05267
   2        2S          0.00043   0.18790  -0.22462  -0.12624  -0.10794
   3        2PX        -0.00010   0.02771  -0.06465   0.08223  -0.14001
   4        2PY         0.00002   0.05632   0.00678  -0.06166   0.11620
   5        2PZ         0.00000  -0.00003  -0.00002   0.00006  -0.00012
   6        3S         -0.00599   0.11375  -0.16925  -0.09779  -0.09542
   7        3PX        -0.00187   0.00229  -0.00012   0.01010  -0.02191
   8        3PY        -0.00265   0.00699   0.00482  -0.00290   0.04080
   9        3PZ         0.00000   0.00000   0.00000   0.00000  -0.00003
  10 2   C  1S         -0.12636  -0.08926   0.11148  -0.06574   0.04809
  11        2S         -0.00432   0.17607  -0.22441   0.13236  -0.09803
  12        2PX         0.00000  -0.03437   0.06386   0.07384   0.14181
  13        2PY        -0.00025   0.05174   0.00104   0.06641   0.11636
  14        2PZ         0.00000  -0.00004   0.00002  -0.00002  -0.00003
  15        3S          0.01301   0.10505  -0.17026   0.09738  -0.08997
  16        3PX        -0.00132  -0.00532   0.00550   0.00559   0.02300
  17        3PY         0.00584   0.00655   0.00397   0.00274   0.03653
  18        3PZ         0.00000  -0.00001   0.00000   0.00000  -0.00002
  19 3   C  1S          0.98012  -0.08634   0.00524  -0.12968  -0.10274
  20        2S          0.02516   0.17044  -0.01057   0.26134   0.21071
  21        2PX        -0.00058  -0.06159   0.00166  -0.04091   0.04979
  22        2PY         0.00000   0.00000   0.10914   0.00442   0.00632
  23        2PZ         0.00000  -0.00002  -0.00007  -0.00001   0.00001
  24        3S         -0.02380   0.10073  -0.00793   0.19602   0.19051
  25        3PX         0.00708  -0.00879   0.00006  -0.00132   0.03844
  26        3PY         0.00000   0.00000   0.00805   0.00033   0.00125
  27        3PZ         0.00000   0.00000  -0.00001   0.00000   0.00001
  28 4   C  1S         -0.12653  -0.08926  -0.10581  -0.07452   0.04250
  29        2S         -0.00433   0.17607   0.21299   0.15005  -0.08657
  30        2PX         0.00000  -0.03437  -0.06961   0.06844   0.14829
  31        2PY         0.00025  -0.05173   0.00643  -0.06612  -0.11680
  32        2PZ         0.00000   0.00002  -0.00002   0.00006   0.00012
  33        3S          0.01301   0.10506   0.16187   0.11081  -0.07974
  34        3PX        -0.00132  -0.00533  -0.00594   0.00513   0.02512
  35        3PY        -0.00584  -0.00657   0.00417  -0.00241  -0.03512
  36        3PZ         0.00000   0.00000   0.00000   0.00000   0.00003
  37 5   C  1S          0.00570  -0.09540  -0.11650   0.05360   0.05775
  38        2S          0.00043   0.18790   0.23408  -0.10769  -0.11831
  39        2PX        -0.00010   0.02770   0.05781   0.08717  -0.13227
  40        2PY        -0.00002  -0.05633   0.00176   0.06200  -0.11576
  41        2PZ         0.00000   0.00005   0.00002  -0.00001   0.00003
  42        3S         -0.00599   0.11374   0.17657  -0.08381  -0.10470
  43        3PX        -0.00187   0.00228  -0.00070   0.01007  -0.01923
  44        3PY         0.00265  -0.00698   0.00458   0.00328  -0.04211
  45        3PZ         0.00000   0.00001   0.00000   0.00000   0.00002
  46 6   C  1S          0.00019  -0.09861  -0.00515   0.12729  -0.09848
  47        2S         -0.00034   0.19412   0.01033  -0.25553   0.20073
  48        2PX        -0.00006   0.06286   0.00101  -0.02471  -0.07159
  49        2PY         0.00000   0.00000   0.12116   0.00491  -0.00645
  50        2PZ         0.00000   0.00002  -0.00008  -0.00001  -0.00002
  51        3S          0.00464   0.11815   0.00788  -0.19462   0.17860
  52        3PX         0.00290   0.00652  -0.00026   0.00669  -0.05024
  53        3PY         0.00000   0.00000   0.01072   0.00044  -0.00151
  54        3PZ         0.00000   0.00000  -0.00001   0.00000  -0.00001
  55 7   H  1S         -0.00005   0.03783  -0.06848  -0.03941  -0.06056
  56        2S         -0.00056   0.00568  -0.01605  -0.00929  -0.02259
  57 8   H  1S          0.00006   0.03361  -0.06469   0.03737  -0.05395
  58        2S          0.00090   0.00393  -0.01195   0.00687  -0.01721
  59 9   H  1S         -0.00035   0.03169  -0.00293   0.07256   0.10704
  60        2S          0.00065   0.00324  -0.00048   0.01182   0.02940
  61 10  H  1S          0.00006   0.03361   0.06146   0.04248  -0.04794
  62        2S          0.00090   0.00393   0.01137   0.00782  -0.01538
  63 11  H  1S         -0.00005   0.03783   0.07143  -0.03375  -0.06667
  64        2S         -0.00056   0.00568   0.01674  -0.00797  -0.02495
  65 12  H  1S          0.00009   0.04014   0.00328  -0.08114   0.12230
  66        2S          0.00071   0.00679   0.00086  -0.02137   0.05196
                          11        12        13        14        15
                           O         O         O         O         O
     Eigenvalues --    -0.81097  -0.69843  -0.62852  -0.60584  -0.57566
   1 1   C  1S          0.08476   0.00680  -0.05352  -0.00284  -0.01888
   2        2S         -0.17283  -0.01293   0.11614   0.00548   0.04415
   3        2PX         0.12265   0.09469  -0.08747   0.23433   0.16484
   4        2PY        -0.00321   0.18041  -0.10417  -0.14533   0.21113
   5        2PZ         0.00004  -0.00009   0.00004   0.00016  -0.00009
   6        3S         -0.15467  -0.02674   0.02182   0.02000   0.04944
   7        3PX         0.04314   0.04171  -0.09003   0.08419   0.07329
   8        3PY         0.02270   0.06201  -0.12988  -0.04838   0.09005
   9        3PZ         0.00000  -0.00003   0.00006   0.00006  -0.00004
  10 2   C  1S         -0.08986   0.01143   0.05883   0.00330  -0.01395
  11        2S          0.18431  -0.02297  -0.12843  -0.00658   0.03467
  12        2PX         0.11048  -0.09670  -0.04216  -0.23838  -0.17176
  13        2PY         0.01024   0.15463   0.11885  -0.13365   0.19166
  14        2PZ         0.00003  -0.00013  -0.00009   0.00001  -0.00018
  15        3S          0.16466  -0.04726  -0.02677  -0.02031   0.01616
  16        3PX         0.03534  -0.03001  -0.06979  -0.07538  -0.05290
  17        3PY        -0.02213   0.06230   0.14349  -0.04597   0.09123
  18        3PZ         0.00003  -0.00005  -0.00012   0.00001  -0.00008
  19 3   C  1S         -0.00315   0.01327  -0.06149   0.00002  -0.00032
  20        2S          0.00645  -0.02713   0.13460  -0.00004   0.00081
  21        2PX         0.00152  -0.17195   0.12117  -0.00002  -0.00691
  22        2PY        -0.20624  -0.00001   0.00005   0.27353  -0.05859
  23        2PZ         0.00013  -0.00005   0.00004  -0.00018   0.00004
  24        3S          0.00584  -0.05491   0.02986  -0.00002   0.00011
  25        3PX         0.00118  -0.06604   0.16019  -0.00004  -0.00292
  26        3PY        -0.04086  -0.00001   0.00003   0.08455  -0.00082
  27        3PZ         0.00003  -0.00002   0.00005  -0.00005   0.00000
  28 4   C  1S          0.09263   0.01142   0.05883  -0.00332   0.01355
  29        2S         -0.18996  -0.02296  -0.12844   0.00664  -0.03370
  30        2PX        -0.10160  -0.09673  -0.04201   0.23837   0.16999
  31        2PY         0.00310  -0.15460  -0.11883  -0.13363   0.18360
  32        2PZ        -0.00003   0.00007   0.00006   0.00016  -0.00007
  33        3S         -0.16985  -0.04723  -0.02677   0.02031  -0.01539
  34        3PX        -0.03387  -0.03002  -0.06976   0.07540   0.05156
  35        3PY        -0.02432  -0.06230  -0.14345  -0.04591   0.08787
  36        3PZ         0.00000   0.00003   0.00007   0.00005  -0.00004
  37 5   C  1S         -0.08138   0.00681  -0.05351   0.00287   0.01931
  38        2S          0.16591  -0.01294   0.11612  -0.00553  -0.04517
  39        2PX        -0.13099   0.09466  -0.08763  -0.23432  -0.16416
  40        2PY        -0.01030  -0.18044   0.10421  -0.14535   0.21816
  41        2PZ        -0.00003   0.00014  -0.00009   0.00002  -0.00019
  42        3S          0.14855  -0.02678   0.02178  -0.02000  -0.05039
  43        3PX        -0.04440   0.04170  -0.09007  -0.08415  -0.07374
  44        3PY         0.02017  -0.06201   0.12992  -0.04843   0.09248
  45        3PZ        -0.00003   0.00005  -0.00011   0.00001  -0.00008
  46 6   C  1S         -0.00302   0.00405   0.05079  -0.00002   0.00054
  47        2S          0.00615  -0.00708  -0.10986   0.00004  -0.00124
  48        2PX        -0.00218   0.21463   0.14041  -0.00003  -0.00665
  49        2PY         0.21041   0.00001   0.00005   0.27824  -0.10073
  50        2PZ        -0.00014   0.00007   0.00004  -0.00018   0.00006
  51        3S          0.00547  -0.01397  -0.01945   0.00002  -0.00153
  52        3PX        -0.00154   0.07696   0.15650  -0.00004  -0.00277
  53        3PY         0.04938   0.00000   0.00002   0.10294  -0.02947
  54        3PZ        -0.00003   0.00002   0.00005  -0.00007   0.00002
  55 7   H  1S         -0.10174  -0.11709   0.14296   0.00881  -0.15162
  56        2S         -0.03931  -0.07428   0.06467   0.00628  -0.12362
  57 8   H  1S          0.09673  -0.10438  -0.13547  -0.00575  -0.13945
  58        2S          0.02944  -0.05360  -0.04455  -0.00340  -0.09681
  59 9   H  1S          0.00327  -0.09822   0.13320  -0.00002  -0.00378
  60        2S          0.00090  -0.04489   0.03650   0.00000  -0.00238
  61 10  H  1S         -0.09985  -0.10437  -0.13542   0.00581   0.13508
  62        2S         -0.03044  -0.05359  -0.04452   0.00343   0.09388
  63 11  H  1S          0.09784  -0.11711   0.14302  -0.00888   0.15489
  64        2S          0.03785  -0.07429   0.06470  -0.00632   0.12635
  65 12  H  1S          0.00374  -0.12372  -0.14788   0.00003   0.00386
  66        2S          0.00159  -0.08658  -0.07697   0.00001   0.00346
                          16        17        18        19        20
                           O         O         O         O         O
     Eigenvalues --    -0.57498  -0.48907  -0.47700  -0.47639  -0.32377
   1 1   C  1S         -0.00944   0.00000  -0.00244  -0.00717   0.00000
   2        2S          0.02265   0.00000   0.00633   0.01674   0.00000
   3        2PX        -0.00977  -0.00007  -0.02352   0.24720   0.00009
   4        2PY         0.15923   0.00014   0.21330  -0.01038  -0.00018
   5        2PZ        -0.00010   0.22045  -0.00014   0.00008  -0.28071
   6        3S          0.02126   0.00000   0.00279   0.01894   0.00000
   7        3PX         0.01244  -0.00004   0.02073   0.12415   0.00008
   8        3PY         0.05563   0.00009   0.12855   0.00880  -0.00016
   9        3PZ        -0.00003   0.14664  -0.00008   0.00003  -0.24951
  10 2   C  1S          0.00813   0.00000   0.00389   0.00354   0.00000
  11        2S         -0.01972   0.00000  -0.00989  -0.00742   0.00000
  12        2PX         0.03582  -0.00006  -0.00725  -0.25194   0.00008
  13        2PY        -0.17258   0.00013  -0.25257  -0.02135  -0.00017
  14        2PZ         0.00012   0.20038   0.00016  -0.00006  -0.26776
  15        3S         -0.01563   0.00000  -0.01488  -0.00820   0.00000
  16        3PX         0.02887  -0.00004   0.02164  -0.11525   0.00007
  17        3PY        -0.07226   0.00008  -0.16249   0.03318  -0.00014
  18        3PZ         0.00006   0.12798   0.00011  -0.00006  -0.22089
  19 3   C  1S          0.01459   0.00000   0.00001  -0.00070   0.00000
  20        2S         -0.03701   0.00000  -0.00001   0.00032   0.00000
  21        2PX         0.30139  -0.00006  -0.00359   0.25739   0.00000
  22        2PY        -0.00134   0.00012   0.27066   0.00376   0.00000
  23        2PZ         0.00009   0.19085  -0.00018   0.00008  -0.00203
  24        3S         -0.00670   0.00000   0.00009  -0.00634   0.00000
  25        3PX         0.12721  -0.00004  -0.00267   0.19174   0.00000
  26        3PY        -0.00002   0.00008   0.09833   0.00138   0.00000
  27        3PZ         0.00004   0.11972  -0.00006   0.00006  -0.00165
  28 4   C  1S          0.00877   0.00000  -0.00399   0.00343   0.00000
  29        2S         -0.02131   0.00000   0.01010  -0.00715   0.00000
  30        2PX         0.04365  -0.00006   0.01421  -0.25165  -0.00008
  31        2PY         0.18114   0.00013  -0.25308   0.01437   0.00017
  32        2PZ        -0.00010   0.20038   0.00017  -0.00009   0.26553
  33        3S         -0.01639   0.00000   0.01511  -0.00782   0.00000
  34        3PX         0.03128  -0.00004  -0.01847  -0.11582  -0.00007
  35        3PY         0.07635   0.00008  -0.16151  -0.03766   0.00014
  36        3PZ        -0.00004   0.12798   0.00010  -0.00001   0.21897
  37 5   C  1S         -0.00856   0.00000   0.00264  -0.00710   0.00000
  38        2S          0.02058   0.00000  -0.00680   0.01657   0.00000
  39        2PX        -0.01730  -0.00007   0.01668   0.24776  -0.00009
  40        2PY        -0.14941   0.00014   0.21293   0.01627   0.00018
  41        2PZ         0.00009   0.22045  -0.00013   0.00006   0.28247
  42        3S          0.01894   0.00000  -0.00330   0.01887   0.00000
  43        3PX         0.00908  -0.00004  -0.02415   0.12352  -0.00008
  44        3PY        -0.05145   0.00009   0.12874  -0.00524   0.00016
  45        3PZ         0.00004   0.14664  -0.00009   0.00004   0.25098
  46 6   C  1S         -0.02413   0.00000  -0.00010   0.00752   0.00000
  47        2S          0.05565   0.00000   0.00024  -0.01777   0.00000
  48        2PX         0.29013  -0.00007   0.00267  -0.19171   0.00000
  49        2PY        -0.00232   0.00015  -0.24843  -0.00346   0.00000
  50        2PZ         0.00009   0.23102   0.00016  -0.00006   0.00196
  51        3S          0.06887   0.00000   0.00017  -0.01266   0.00000
  52        3PX         0.12042  -0.00005   0.00171  -0.12348   0.00000
  53        3PY        -0.00068   0.00010  -0.11671  -0.00163   0.00000
  54        3PZ         0.00004   0.15714   0.00008  -0.00004   0.00176
  55 7   H  1S         -0.07644   0.00000  -0.13684  -0.08193   0.00000
  56        2S         -0.06378   0.00000  -0.11372  -0.07274   0.00000
  57 8   H  1S          0.09390   0.00000   0.15597  -0.08621   0.00000
  58        2S          0.06261   0.00000   0.10890  -0.05632   0.00000
  59 9   H  1S          0.16401   0.00000  -0.00261   0.18767   0.00000
  60        2S          0.10355   0.00000  -0.00161   0.11557   0.00000
  61 10  H  1S          0.10016   0.00000  -0.15352  -0.09052   0.00000
  62        2S          0.06696   0.00000  -0.10730  -0.05934   0.00000
  63 11  H  1S         -0.06943   0.00000   0.13907  -0.07808   0.00000
  64        2S         -0.05806   0.00000   0.11570  -0.06954   0.00000
  65 12  H  1S         -0.16761   0.00000  -0.00209   0.15036   0.00000
  66        2S         -0.15064   0.00000  -0.00195   0.14039   0.00000
                          21        22        23        24        25
                           O         V         V         V         V
     Eigenvalues --    -0.32299   0.15372   0.15444   0.23173   0.29171
   1 1   C  1S          0.00000   0.00000   0.00000   0.03896  -0.05296
   2        2S          0.00000   0.00000   0.00000  -0.03601   0.03395
   3        2PX         0.00004   0.00005  -0.00008   0.06701  -0.08603
   4        2PY        -0.00009  -0.00011   0.00017   0.11480  -0.18253
   5        2PZ        -0.14101  -0.17220   0.26389  -0.00005   0.00009
   6        3S          0.00000  -0.00001   0.00001  -0.70424   1.30718
   7        3PX         0.00003   0.00010  -0.00015   0.08257  -0.45451
   8        3PY        -0.00008  -0.00021   0.00032   0.37394  -0.69735
   9        3PZ        -0.11879  -0.33163   0.50245  -0.00021   0.00031
  10 2   C  1S          0.00000   0.00000   0.00000   0.02646  -0.00808
  11        2S          0.00000   0.00000   0.00000  -0.03873  -0.01243
  12        2PX        -0.00005   0.00004   0.00009  -0.02398   0.06800
  13        2PY         0.00011  -0.00009  -0.00018   0.05567  -0.11192
  14        2PZ         0.17468  -0.14128  -0.28053  -0.00004   0.00009
  15        3S          0.00000  -0.00001  -0.00001  -0.26804   0.45442
  16        3PX        -0.00005   0.00008   0.00016  -0.14954   0.31828
  17        3PY         0.00010  -0.00016  -0.00033   0.09649  -0.14949
  18        3PZ         0.15116  -0.25205  -0.51049  -0.00011   0.00019
  19 3   C  1S          0.00000   0.00000   0.00000   0.02478   0.00001
  20        2S          0.00000   0.00000   0.00000  -0.04038  -0.00004
  21        2PX        -0.00010  -0.00010   0.00000  -0.03329  -0.00003
  22        2PY         0.00021   0.00020   0.00000  -0.00001  -0.04094
  23        2PZ         0.32163   0.31282  -0.00170  -0.00001   0.00003
  24        3S          0.00000   0.00001   0.00000  -0.19969   0.00028
  25        3PX        -0.00008  -0.00017   0.00000  -0.07689  -0.00044
  26        3PY         0.00017   0.00035   0.00000  -0.00003   0.13868
  27        3PZ         0.26267   0.55112  -0.00299  -0.00002  -0.00009
  28 4   C  1S          0.00000   0.00000   0.00000   0.02646   0.00809
  29        2S          0.00000   0.00000   0.00000  -0.03872   0.01249
  30        2PX        -0.00005   0.00004  -0.00009  -0.02400  -0.06808
  31        2PY         0.00011  -0.00009   0.00018  -0.05567  -0.11196
  32        2PZ         0.17804  -0.13824   0.28204   0.00003   0.00005
  33        3S          0.00000  -0.00001   0.00001  -0.26806  -0.45557
  34        3PX        -0.00005   0.00007  -0.00016  -0.14951  -0.31810
  35        3PY         0.00010  -0.00016   0.00033  -0.09646  -0.14902
  36        3PZ         0.15394  -0.24651   0.51318   0.00002   0.00000
  37 5   C  1S          0.00000   0.00000   0.00000   0.03896   0.05301
  38        2S          0.00000   0.00000   0.00000  -0.03601  -0.03409
  39        2PX         0.00004   0.00005   0.00008   0.06696   0.08604
  40        2PY        -0.00009  -0.00011  -0.00017  -0.11479  -0.18257
  41        2PZ        -0.13746  -0.17505  -0.26201   0.00009   0.00014
  42        3S          0.00000  -0.00001  -0.00001  -0.70425  -1.30699
  43        3PX         0.00003   0.00010   0.00015   0.08253   0.45517
  44        3PY        -0.00007  -0.00021  -0.00032  -0.37383  -0.69831
  45        3PZ        -0.11563  -0.33705  -0.49883   0.00027   0.00059
  46 6   C  1S          0.00000   0.00000   0.00000   0.05337  -0.00003
  47        2S          0.00000   0.00000   0.00000  -0.04602   0.00006
  48        2PX         0.00009  -0.00010   0.00000   0.18330  -0.00007
  49        2PY        -0.00020   0.00020   0.00000   0.00001   0.00062
  50        2PZ        -0.31047   0.31486  -0.00171   0.00006   0.00000
  51        3S         -0.00001   0.00001   0.00000  -1.00920   0.00018
  52        3PX         0.00009  -0.00019   0.00000   0.64204  -0.00084
  53        3PY        -0.00018   0.00040   0.00000   0.00010   0.36821
  54        3PZ        -0.27997   0.61670  -0.00335   0.00020  -0.00024
  55 7   H  1S          0.00000   0.00000   0.00000   0.03354  -0.00061
  56        2S          0.00000   0.00000   0.00000   0.91147  -1.53911
  57 8   H  1S          0.00000   0.00000   0.00000   0.03554  -0.01542
  58        2S          0.00000   0.00000   0.00000   0.46359  -0.62708
  59 9   H  1S          0.00000   0.00000   0.00000   0.03250   0.00001
  60        2S          0.00000   0.00000   0.00000   0.32501   0.00038
  61 10  H  1S          0.00000   0.00000   0.00000   0.03555   0.01541
  62        2S          0.00000   0.00000   0.00000   0.46359   0.62719
  63 11  H  1S          0.00000   0.00000   0.00000   0.03354   0.00064
  64        2S          0.00000   0.00000   0.00000   0.91134   1.54026
  65 12  H  1S          0.00000   0.00000   0.00000   0.02923   0.00001
  66        2S          0.00000   0.00000   0.00000   1.34516  -0.00093
                          26        27        28        29        30
                           V         V         V         V         V
     Eigenvalues --     0.29757   0.32339   0.34419   0.36651   0.36922
   1 1   C  1S         -0.02844   0.05353  -0.05588  -0.00015   0.00000
   2        2S          0.07036  -0.10518   0.06836  -0.06007   0.00000
   3        2PX        -0.01153   0.08727   0.00404  -0.03882  -0.00007
   4        2PY         0.00609   0.06894  -0.01850   0.01720   0.00015
   5        2PZ        -0.00001  -0.00002   0.00001  -0.00003   0.23076
   6        3S         -0.04607  -0.21213   1.02534   0.95803   0.00004
   7        3PX        -0.53770   0.75389   0.02554   0.09700  -0.00019
   8        3PY        -0.27871   1.16082  -0.41190   0.84493   0.00045
   9        3PZ         0.00001  -0.00051   0.00027  -0.00052   0.66278
  10 2   C  1S         -0.03252  -0.02586   0.07677  -0.05967   0.00000
  11        2S          0.00891   0.08096  -0.08036   0.12208   0.00000
  12        2PX         0.09524   0.02608  -0.03508   0.04321   0.00008
  13        2PY        -0.08845  -0.07602   0.14475  -0.02648  -0.00016
  14        2PZ         0.00009   0.00006  -0.00010   0.00004  -0.24952
  15        3S          1.08449  -0.35435  -1.57760   0.29083  -0.00002
  16        3PX         0.05189   0.29503  -0.22974   0.81914   0.00023
  17        3PY        -0.13544  -1.02306   0.74390  -0.77647  -0.00047
  18        3PZ         0.00010   0.00075  -0.00055   0.00076  -0.69128
  19 3   C  1S         -0.01688  -0.03335  -0.00002   0.10214   0.00000
  20        2S          0.02824  -0.02305   0.00003  -0.16826   0.00000
  21        2PX         0.14768   0.14055   0.00006  -0.13877  -0.00008
  22        2PY        -0.00001   0.00000  -0.04772  -0.00001   0.00017
  23        2PZ         0.00005   0.00004   0.00003  -0.00005   0.25948
  24        3S          0.16418   1.66517   0.00012  -1.17650   0.00001
  25        3PX         0.62131  -0.18983   0.00051  -1.45620  -0.00025
  26        3PY         0.00017  -0.00006  -0.45486  -0.00031   0.00045
  27        3PZ         0.00019  -0.00006   0.00029  -0.00045   0.70572
  28 4   C  1S         -0.03250  -0.02587  -0.07674  -0.05972   0.00000
  29        2S          0.00892   0.08095   0.08028   0.12210   0.00000
  30        2PX         0.09521   0.02614   0.03508   0.04322   0.00008
  31        2PY         0.08833   0.07608   0.14474   0.02656  -0.00016
  32        2PZ        -0.00003  -0.00004  -0.00008   0.00000  -0.24952
  33        3S          1.08385  -0.35408   1.57774   0.29207  -0.00002
  34        3PX         0.05160   0.29539   0.22941   0.81940   0.00023
  35        3PY         0.13535   1.02304   0.74329   0.77660  -0.00042
  36        3PZ        -0.00007  -0.00057  -0.00041  -0.00024  -0.69127
  37 5   C  1S         -0.02840   0.05351   0.05587  -0.00013   0.00000
  38        2S          0.07036  -0.10519  -0.06831  -0.06011   0.00000
  39        2PX        -0.01147   0.08723  -0.00402  -0.03884  -0.00007
  40        2PY        -0.00624  -0.06888  -0.01850  -0.01717   0.00015
  41        2PZ         0.00000   0.00007   0.00001   0.00000   0.23075
  42        3S         -0.04729  -0.21140  -1.02577   0.95770   0.00004
  43        3PX        -0.53726   0.75344  -0.02585   0.09665  -0.00019
  44        3PY         0.27838  -1.16081  -0.41153  -0.84519   0.00040
  45        3PZ        -0.00034   0.00098   0.00026   0.00056   0.66279
  46 6   C  1S          0.06457  -0.05650   0.00001   0.02553   0.00000
  47        2S         -0.06601   0.13559  -0.00003   0.02559   0.00000
  48        2PX         0.19180  -0.00186   0.00000  -0.01950   0.00007
  49        2PY        -0.00001  -0.00001   0.06164   0.00001  -0.00014
  50        2PZ         0.00006   0.00000  -0.00004   0.00000  -0.22193
  51        3S         -1.16287  -0.04068   0.00013  -1.43204  -0.00005
  52        3PX         1.30679  -1.17507   0.00024  -0.78632   0.00017
  53        3PY         0.00028  -0.00024   0.39926   0.00000  -0.00042
  54        3PZ         0.00040  -0.00036  -0.00026  -0.00023  -0.64872
  55 7   H  1S         -0.01349   0.00639   0.01987   0.01917   0.00000
  56        2S         -0.50510   1.51482  -0.72104   0.38375   0.00001
  57 8   H  1S         -0.01174  -0.03343   0.00145  -0.00916   0.00000
  58        2S         -0.74920  -0.98326   1.51358  -1.20263  -0.00002
  59 9   H  1S         -0.04199   0.00113  -0.00001   0.02555   0.00000
  60        2S         -0.90525  -0.65230  -0.00059   2.04750   0.00004
  61 10  H  1S         -0.01173  -0.03342  -0.00144  -0.00917   0.00000
  62        2S         -0.74856  -0.98356  -1.51286  -1.20344  -0.00003
  63 11  H  1S         -0.01347   0.00640  -0.01988   0.01916   0.00000
  64        2S         -0.50393   1.51427   0.72083   0.38393   0.00001
  65 12  H  1S         -0.01631  -0.00438   0.00000  -0.03033   0.00000
  66        2S          1.87868  -1.11740   0.00020  -0.24776  -0.00001
                          31        32        33        34        35
                           V         V         V         V         V
     Eigenvalues --     0.47512   0.47657   0.50558   0.50592   0.69247
   1 1   C  1S         -0.07579   0.03413  -0.02136   0.03687   0.00760
   2        2S          0.05220  -0.03298  -0.00681  -0.02496  -0.00688
   3        2PX         0.03805  -0.01071  -0.10645  -0.19136  -0.33067
   4        2PY         0.17529  -0.10122   0.05347   0.05632   0.16958
   5        2PZ        -0.00010   0.00006  -0.00007  -0.00009  -0.00021
   6        3S          2.41496  -0.78671   1.24860  -1.38045  -0.11960
   7        3PX         0.86754   0.80336  -1.29247  -1.60823   0.41161
   8        3PY         1.27155  -1.33177   0.55546   0.48091  -0.31784
   9        3PZ        -0.00055   0.00110  -0.00075  -0.00080   0.00033
  10 2   C  1S          0.04973   0.03727  -0.06170  -0.01394  -0.00764
  11        2S         -0.03804  -0.01581   0.03022  -0.00571   0.00768
  12        2PX         0.11793   0.10556   0.04433  -0.17584   0.28462
  13        2PY        -0.12562  -0.05897   0.12290  -0.10576   0.18626
  14        2PZ         0.00012   0.00007  -0.00007   0.00001  -0.00003
  15        3S         -1.30822  -1.33352   2.36275   0.74197   0.12336
  16        3PX         1.32872   0.28526   0.35805  -1.77072  -0.50496
  17        3PY        -0.86824  -0.92250   0.95485  -1.15549  -0.21061
  18        3PZ         0.00096   0.00068  -0.00051   0.00020  -0.00002
  19 3   C  1S          0.00024  -0.04898  -0.00012  -0.07055  -0.00001
  20        2S         -0.00017   0.03005   0.00006   0.02854   0.00004
  21        2PX         0.00100  -0.19882  -0.00018  -0.10209  -0.00001
  22        2PY         0.04996   0.00025   0.23707  -0.00047  -0.32396
  23        2PZ        -0.00003  -0.00006  -0.00015  -0.00003   0.00021
  24        3S         -0.00656   1.39578   0.00472   2.72462   0.00040
  25        3PX         0.00829  -1.69407  -0.00121  -0.75856  -0.00043
  26        3PY        -0.30151  -0.00175   2.25939  -0.00398   0.55967
  27        3PZ         0.00020  -0.00052  -0.00145  -0.00023  -0.00036
  28 4   C  1S         -0.05008   0.03678   0.06166  -0.01416   0.00768
  29        2S          0.03815  -0.01545  -0.03023  -0.00560  -0.00765
  30        2PX        -0.11894   0.10446  -0.04490  -0.17572  -0.28451
  31        2PY        -0.12615   0.05777   0.12328   0.10537   0.18623
  32        2PZ         0.00004  -0.00001  -0.00009  -0.00012  -0.00021
  33        3S          1.32106  -1.32034  -2.35992   0.75032  -0.12525
  34        3PX        -1.33154   0.27277  -0.36424  -1.76922   0.50604
  35        3PY        -0.87676   0.91382   0.95884   1.15236  -0.20993
  36        3PZ         0.00016  -0.00050  -0.00072  -0.00128   0.00029
  37 5   C  1S          0.07546   0.03488   0.02148   0.03680  -0.00764
  38        2S         -0.05191  -0.03348   0.00675  -0.02497   0.00689
  39        2PX        -0.03791  -0.01102   0.10584  -0.19165   0.33079
  40        2PY         0.17433   0.10292   0.05322  -0.05644   0.16957
  41        2PZ        -0.00012  -0.00007   0.00000  -0.00002  -0.00001
  42        3S         -2.40714  -0.81094  -1.25325  -1.37646   0.12151
  43        3PX        -0.87504   0.79559   1.28666  -1.61276  -0.41054
  44        3PY         1.25896   1.34428   0.55314  -0.48234  -0.31861
  45        3PZ        -0.00108  -0.00062   0.00004  -0.00018   0.00008
  46 6   C  1S          0.00045  -0.09241   0.00005   0.02205   0.00001
  47        2S         -0.00038   0.07276   0.00001   0.00596  -0.00002
  48        2PX        -0.00096   0.19338   0.00000   0.01164   0.00001
  49        2PY         0.02918   0.00019   0.23695  -0.00046  -0.38711
  50        2PZ        -0.00002   0.00006  -0.00015   0.00000   0.00025
  51        3S         -0.01347   2.82340  -0.00290  -1.38618  -0.00049
  52        3PX        -0.00834   1.71526   0.00016   0.19480  -0.00050
  53        3PY         1.63315   0.00848   2.06180  -0.00333   0.50747
  54        3PZ        -0.00105   0.00052  -0.00132   0.00006  -0.00033
  55 7   H  1S          0.03857   0.02323   0.11376  -0.07712   0.00998
  56        2S          0.82911  -0.43604  -0.27432  -0.09294  -0.02657
  57 8   H  1S          0.02156  -0.02584   0.11665   0.05290  -0.00868
  58        2S         -0.91422  -0.57469   0.16988  -0.18397   0.02621
  59 9   H  1S          0.00007  -0.01604   0.00025   0.12563  -0.00002
  60        2S         -0.00578   1.16939   0.00027   0.21934   0.00009
  61 10  H  1S         -0.02130  -0.02606  -0.11644   0.05330   0.00866
  62        2S          0.91962  -0.56604  -0.17052  -0.18334  -0.02654
  63 11  H  1S         -0.03878   0.02283  -0.11406  -0.07674  -0.00998
  64        2S         -0.82496  -0.44388   0.27425  -0.09390   0.02697
  65 12  H  1S         -0.00023   0.04275  -0.00029  -0.14485   0.00002
  66        2S         -0.00428   0.87617   0.00050   0.30764  -0.00012
                          36        37        38        39        40
                           V         V         V         V         V
     Eigenvalues --     0.76294   0.77805   0.77818   0.79121   0.84355
   1 1   C  1S          0.00000  -0.12016  -0.00009  -0.00556  -0.01157
   2        2S          0.00005   0.08113   0.00986   0.52111  -0.45735
   3        2PX        -0.00013   0.03122   0.18910   0.12488   0.12612
   4        2PY         0.00031   0.11092  -0.11116   0.21831   0.03394
   5        2PZ         0.46178  -0.00006   0.00013  -0.00014   0.00003
   6        3S         -0.00004   4.41791  -0.00679  -0.34739   0.69001
   7        3PX         0.00010   1.71864   3.37552  -0.09261  -0.11047
   8        3PY        -0.00021   2.86618  -1.94739  -0.19016  -0.27196
   9        3PZ        -0.32729  -0.00132   0.00228   0.00012   0.00013
  10 2   C  1S          0.00000   0.11598  -0.00190  -0.00501  -0.00268
  11        2S          0.00005  -0.07356   0.01088   0.50397  -0.34631
  12        2PX        -0.00013   0.08670   0.19909  -0.12890   0.01073
  13        2PY         0.00027  -0.09630   0.11556   0.22267   0.10860
  14        2PZ         0.39617   0.00009  -0.00001  -0.00021  -0.00004
  15        3S         -0.00004  -4.42470   0.04888  -0.34645   0.42402
  16        3PX         0.00009   1.64528   3.39314   0.11740   0.19708
  17        3PY        -0.00018  -2.87633   2.00721  -0.17312  -0.22142
  18        3PZ        -0.26645   0.00235  -0.00025   0.00017   0.00019
  19 3   C  1S          0.00000  -0.11417   0.00063  -0.00446  -0.00265
  20        2S          0.00004   0.06848  -0.00046   0.49545  -0.29212
  21        2PX        -0.00013  -0.13416   0.00080  -0.25959  -0.09757
  22        2PY         0.00024   0.00139   0.23805   0.00025   0.00039
  23        2PZ         0.36820  -0.00004  -0.00015  -0.00010   0.00000
  24        3S         -0.00003   4.43220  -0.02405  -0.35168   0.35099
  25        3PX         0.00008  -3.30094   0.01811   0.20997   0.25245
  26        3PY        -0.00016   0.02167   3.96486   0.00085   0.00052
  27        3PZ        -0.24256  -0.00102  -0.00254   0.00008   0.00006
  28 4   C  1S          0.00000   0.11598   0.00062  -0.00499  -0.00259
  29        2S          0.00005  -0.07368  -0.01023   0.50398  -0.34638
  30        2PX        -0.00013   0.08456  -0.19996  -0.12880   0.01113
  31        2PY         0.00024   0.09754   0.11468  -0.22261  -0.10860
  32        2PZ         0.39617  -0.00004  -0.00014   0.00008   0.00009
  33        3S         -0.00004  -4.42439   0.00007  -0.34610   0.42354
  34        3PX         0.00008   1.60762  -3.41147   0.11507   0.19571
  35        3PY        -0.00016   2.89776   1.97583   0.17411   0.22278
  36        3PZ        -0.26642  -0.00137  -0.00231  -0.00006  -0.00010
  37 5   C  1S          0.00000  -0.12016   0.00146  -0.00559  -0.01167
  38        2S          0.00005   0.08100  -0.01093   0.52105  -0.45745
  39        2PX        -0.00013   0.02897  -0.18955   0.12491   0.12640
  40        2PY         0.00028  -0.11219  -0.10973  -0.21841  -0.03404
  41        2PZ         0.46178   0.00008   0.00001   0.00014   0.00007
  42        3S         -0.00004   4.41820  -0.04345  -0.34766   0.69088
  43        3PX         0.00010   1.68026  -3.39456  -0.09488  -0.11180
  44        3PY        -0.00021  -2.88863  -1.91421   0.18924   0.27060
  45        3PZ        -0.32732   0.00237   0.00019  -0.00013  -0.00021
  46 6   C  1S          0.00000   0.12256  -0.00070  -0.00580  -0.01884
  47        2S          0.00005  -0.08173   0.00039   0.52979  -0.51606
  48        2PX        -0.00014  -0.10387   0.00053   0.24837   0.10341
  49        2PY         0.00032  -0.00113  -0.21547  -0.00025  -0.00044
  50        2PZ         0.50006  -0.00003   0.00014   0.00004   0.00003
  51        3S         -0.00005  -4.42107   0.02547  -0.34730   0.81735
  52        3PX         0.00010  -3.35679   0.01921  -0.21016  -0.30478
  53        3PY        -0.00024  -0.02222  -3.87459  -0.00088  -0.00065
  54        3PZ        -0.36572  -0.00101   0.00249  -0.00004  -0.00009
  55 7   H  1S          0.00000  -0.17125   0.01815  -0.11477  -0.39828
  56        2S          0.00002   1.27406  -0.00162   0.13135  -0.11142
  57 8   H  1S          0.00000   0.14701   0.01501  -0.11191  -0.33565
  58        2S          0.00001  -1.26076   0.01451   0.13409  -0.08134
  59 9   H  1S          0.00000  -0.13592   0.00089  -0.11005  -0.31810
  60        2S          0.00001   1.25484  -0.00701   0.13525  -0.04894
  61 10  H  1S          0.00000   0.14678  -0.01648  -0.11185  -0.33541
  62        2S          0.00001  -1.26049  -0.00057   0.13427  -0.08164
  63 11  H  1S          0.00000  -0.17150  -0.01605  -0.11486  -0.39860
  64        2S          0.00002   1.27433  -0.01283   0.13113  -0.11117
  65 12  H  1S          0.00000   0.18574  -0.00090  -0.11616  -0.44219
  66        2S          0.00001  -1.28161   0.00722   0.13127  -0.12847
                          41        42        43        44        45
                           V         V         V         V         V
     Eigenvalues --     0.85359   0.85456   0.88035   0.88038   0.90772
   1 1   C  1S          0.00000   0.00000  -0.04800  -0.06551  -0.01559
   2        2S         -0.00004   0.00000  -0.00313  -0.14025  -0.55462
   3        2PX         0.00018   0.00009  -0.37202   0.37125  -0.29382
   4        2PY        -0.00038  -0.00016   0.38643  -0.04445   0.12572
   5        2PZ        -0.60787  -0.22766  -0.00038   0.00015  -0.00013
   6        3S          0.00007   0.00001   0.05516   0.53552   0.69892
   7        3PX        -0.00018  -0.00006   0.30812  -0.12240   0.14839
   8        3PY         0.00039   0.00014  -0.19455   0.30733  -0.19755
   9        3PZ         0.60274   0.19979   0.00024  -0.00024   0.00012
  10 2   C  1S          0.00000   0.00000  -0.03279   0.06856  -0.05032
  11        2S         -0.00003   0.00003  -0.12642  -0.11154  -0.54059
  12        2PX         0.00016  -0.00011   0.36764   0.31753   0.10746
  13        2PY        -0.00030   0.00025   0.28982  -0.05350   0.12775
  14        2PZ        -0.48180   0.39003  -0.00006   0.00016  -0.00005
  15        3S          0.00004  -0.00006   0.50173  -0.26433   0.79782
  16        3PX        -0.00012   0.00011  -0.45265   0.02320   0.05143
  17        3PY         0.00026  -0.00023  -0.03291  -0.31293   0.02820
  18        3PZ         0.41928  -0.36956  -0.00013   0.00017   0.00001
  19 3   C  1S          0.00000   0.00000   0.07036  -0.01972  -0.00024
  20        2S          0.00000   0.00005  -0.17517   0.04921  -0.00291
  21        2PX         0.00000  -0.00018   0.20467  -0.05749  -0.00033
  22        2PY         0.00001   0.00038  -0.11828  -0.42178   0.63738
  23        2PZ        -0.00077   0.59923   0.00017   0.00024  -0.00041
  24        3S          0.00000  -0.00006  -0.33991   0.09534   0.00413
  25        3PX         0.00000   0.00014   0.42735  -0.11965   0.00029
  26        3PY         0.00002  -0.00033   0.12563   0.44800  -0.25124
  27        3PZ         0.00063  -0.51823   0.00001  -0.00031   0.00016
  28 4   C  1S          0.00000   0.00000  -0.06365  -0.04152   0.05023
  29        2S          0.00003   0.00003  -0.04999   0.16102   0.53724
  30        2PX        -0.00016  -0.00011   0.14887  -0.46226  -0.11127
  31        2PY         0.00031   0.00025  -0.27550   0.10468   0.13017
  32        2PZ         0.48070   0.39131   0.00021  -0.00024  -0.00012
  33        3S         -0.00005  -0.00006   0.56592  -0.03473  -0.79348
  34        3PX         0.00012   0.00011  -0.39848   0.21563  -0.04925
  35        3PY        -0.00027  -0.00025  -0.13436  -0.28394   0.02759
  36        3PZ        -0.41819  -0.37068  -0.00002   0.00029  -0.00004
  37 5   C  1S          0.00000   0.00000  -0.00695   0.08090   0.01580
  38        2S          0.00003   0.00000   0.07009   0.12113   0.55669
  39        2PX        -0.00018   0.00009  -0.51082  -0.12331   0.29157
  40        2PY         0.00040  -0.00013  -0.35317   0.16282   0.12451
  41        2PZ         0.60855  -0.22603   0.00005  -0.00014  -0.00004
  42        3S         -0.00006   0.00001  -0.23111  -0.48557  -0.70212
  43        3PX         0.00018  -0.00006   0.32706  -0.05607  -0.14826
  44        3PY        -0.00039   0.00012   0.32624   0.16209  -0.19702
  45        3PZ        -0.60339   0.19816  -0.00009  -0.00013   0.00014
  46 6   C  1S          0.00000   0.00000   0.07741  -0.02173   0.00008
  47        2S          0.00000  -0.00002   0.11043  -0.03125   0.00240
  48        2PX         0.00000   0.00020  -0.19103   0.05365   0.00016
  49        2PY         0.00004  -0.00042   0.18211   0.64957   0.33926
  50        2PZ         0.00085  -0.65939  -0.00017  -0.00040  -0.00022
  51        3S          0.00000   0.00004  -0.31026   0.08780  -0.00305
  52        3PX         0.00000  -0.00020  -0.06902   0.01928   0.00033
  53        3PY        -0.00001   0.00043  -0.13089  -0.46746  -0.12660
  54        3PZ        -0.00083   0.67242   0.00005   0.00031   0.00008
  55 7   H  1S         -0.00002   0.00001  -0.19342  -0.25800  -0.20517
  56        2S         -0.00001   0.00000   0.04841   0.08864  -0.16664
  57 8   H  1S         -0.00001   0.00002  -0.15030   0.20313  -0.32140
  58        2S         -0.00001   0.00001   0.06657  -0.19508  -0.10149
  59 9   H  1S          0.00000   0.00002   0.16123  -0.04539  -0.00171
  60        2S          0.00000   0.00002  -0.25280   0.07091  -0.00063
  61 10  H  1S          0.00001   0.00002  -0.23410  -0.09579   0.31992
  62        2S          0.00001   0.00001   0.15815   0.13194   0.10067
  63 11  H  1S          0.00002   0.00001  -0.03130   0.32038   0.20627
  64        2S          0.00001   0.00000  -0.00476  -0.10121   0.16698
  65 12  H  1S          0.00000   0.00000   0.29507  -0.08314   0.00080
  66        2S          0.00000  -0.00001  -0.05832   0.01635   0.00075
                          46        47        48        49        50
                           V         V         V         V         V
     Eigenvalues --     0.90949   0.92381   0.92524   1.00105   1.12690
   1 1   C  1S          0.02540   0.00000   0.00000   0.00000   0.00174
   2        2S          0.24154   0.00000  -0.00002  -0.00001  -0.08288
   3        2PX        -0.26165  -0.00013   0.00014   0.00013   0.33005
   4        2PY         0.13280   0.00028  -0.00033  -0.00027   0.46722
   5        2PZ        -0.00016   0.42360  -0.51100  -0.42586  -0.00020
   6        3S         -0.31135   0.00000   0.00003  -0.00001  -1.33943
   7        3PX         0.04428   0.00022  -0.00023  -0.00033  -1.45462
   8        3PY        -0.03897  -0.00043   0.00049   0.00063  -2.11813
   9        3PZ         0.00002  -0.66249   0.79135   1.02259   0.00091
  10 2   C  1S         -0.00980   0.00000   0.00000   0.00000   0.01551
  11        2S         -0.38844   0.00002  -0.00001   0.00000  -0.11021
  12        2PX        -0.46037  -0.00004  -0.00020  -0.00016   0.04375
  13        2PY        -0.27609   0.00016   0.00041   0.00033  -0.07744
  14        2PZ         0.00007   0.22335   0.63010   0.51470   0.00006
  15        3S          0.45233  -0.00002   0.00000   0.00000   1.38480
  16        3PX         0.30483   0.00006   0.00028   0.00034  -0.48535
  17        3PY         0.02644  -0.00020  -0.00057  -0.00072   0.72474
  18        3PZ         0.00004  -0.30228  -0.90339  -1.15751  -0.00061
  19 3   C  1S         -0.05848   0.00000   0.00000   0.00000  -0.01648
  20        2S         -0.68701   0.00002   0.00000  -0.00001   0.06013
  21        2PX        -0.07601   0.00021   0.00000   0.00017   0.02791
  22        2PY        -0.00278  -0.00042   0.00004  -0.00036   0.00003
  23        2PZ        -0.00002  -0.66023   0.00056  -0.56630   0.00001
  24        3S          1.02908  -0.00002   0.00000   0.00000  -0.95306
  25        3PX         0.01959  -0.00026   0.00000  -0.00035   0.29956
  26        3PY         0.00149   0.00057  -0.00003   0.00079  -0.00015
  27        3PZ         0.00002   0.88940  -0.00077   1.23174   0.00009
  28 4   C  1S         -0.01024   0.00000   0.00000   0.00000   0.01553
  29        2S         -0.39294   0.00002   0.00001   0.00000  -0.11036
  30        2PX        -0.45958  -0.00004   0.00020  -0.00015   0.04362
  31        2PY         0.27511   0.00012  -0.00040   0.00033   0.07718
  32        2PZ        -0.00029   0.22223  -0.63048   0.51479  -0.00004
  33        3S          0.45880  -0.00002   0.00000   0.00000   1.38522
  34        3PX         0.30503   0.00006  -0.00028   0.00034  -0.48479
  35        3PY        -0.02661  -0.00019   0.00059  -0.00077  -0.72379
  36        3PZ         0.00008  -0.30070   0.90388  -1.15760   0.00032
  37 5   C  1S          0.02530   0.00000   0.00000   0.00000   0.00174
  38        2S          0.23690   0.00000   0.00002  -0.00001  -0.08314
  39        2PX        -0.26420  -0.00013  -0.00014   0.00013   0.33007
  40        2PY        -0.13376   0.00027   0.00033  -0.00028  -0.46731
  41        2PZ         0.00001   0.42448   0.51024  -0.42580   0.00040
  42        3S         -0.30587   0.00000  -0.00003  -0.00001  -1.33866
  43        3PX         0.04546   0.00022   0.00023  -0.00033  -1.45444
  44        3PY         0.04066  -0.00042  -0.00052   0.00068   2.11827
  45        3PZ        -0.00003  -0.66384  -0.79015   1.02255  -0.00181
  46 6   C  1S          0.01881   0.00000   0.00000   0.00000  -0.01937
  47        2S          0.56382  -0.00003   0.00000   0.00000   0.37766
  48        2PX         0.05148   0.00019   0.00000  -0.00012  -0.99224
  49        2PY        -0.00132  -0.00042  -0.00001   0.00025  -0.00003
  50        2PZ        -0.00004  -0.65033   0.00058   0.38777  -0.00031
  51        3S         -0.73774   0.00005   0.00000   0.00001   0.76163
  52        3PX         0.02744  -0.00033   0.00000   0.00033   3.75012
  53        3PY         0.00054   0.00068   0.00002  -0.00062  -0.00002
  54        3PZ         0.00008   1.05193  -0.00096  -0.96126   0.00116
  55 7   H  1S          0.11915  -0.00001   0.00000   0.00000   0.09015
  56        2S          0.05419   0.00000  -0.00001  -0.00002  -1.28955
  57 8   H  1S         -0.17908   0.00000  -0.00001   0.00000   0.11150
  58        2S         -0.12139   0.00001   0.00001   0.00001   0.12710
  59 9   H  1S         -0.42273   0.00002   0.00000   0.00000  -0.13707
  60        2S         -0.12369  -0.00001   0.00000  -0.00001   0.14996
  61 10  H  1S         -0.18190   0.00000   0.00001   0.00000   0.11163
  62        2S         -0.12218   0.00001  -0.00001   0.00002   0.12627
  63 11  H  1S          0.11750  -0.00001   0.00000   0.00000   0.09008
  64        2S          0.05275   0.00000   0.00001  -0.00002  -1.28966
  65 12  H  1S          0.17874   0.00000   0.00000   0.00000  -0.31400
  66        2S          0.15822  -0.00002   0.00000   0.00002   2.27652
                          51        52        53        54        55
                           V         V         V         V         V
     Eigenvalues --     1.13818   1.15185   1.17334   1.17515   1.25250
   1 1   C  1S         -0.02835  -0.00196  -0.01856  -0.01491   0.00669
   2        2S          0.40285  -0.11189   0.41830   0.53014  -0.26847
   3        2PX        -0.37045   0.09604  -0.04429  -0.23677   0.29686
   4        2PY        -0.62046   0.31649  -0.38283  -0.14277   0.23342
   5        2PZ         0.00028  -0.00017   0.00023   0.00002  -0.00006
   6        3S         -0.56597  -1.08034  -1.43168  -1.85105   0.27425
   7        3PX         1.22585  -0.53699  -0.43706   0.68100  -0.77972
   8        3PY         1.91298  -1.59643   0.89617  -0.11975   0.00770
   9        3PZ        -0.00085   0.00085  -0.00071   0.00029  -0.00024
  10 2   C  1S          0.01235  -0.01140   0.00484  -0.02975   0.00768
  11        2S         -0.05670   0.22147  -0.19344   0.64260  -0.53303
  12        2PX        -0.17751   0.30596   0.18808   0.37407  -0.07065
  13        2PY         0.38895  -0.61032   0.04067  -0.49170   0.39861
  14        2PZ        -0.00030   0.00048   0.00003   0.00043  -0.00028
  15        3S         -0.45704   1.15673   1.20811  -1.76476   1.27208
  16        3PX         0.69211  -1.27698  -1.02911  -1.14224  -0.32003
  17        3PY        -1.52260   2.71548   0.04498   1.14051  -0.75140
  18        3PZ         0.00119  -0.00213  -0.00034  -0.00108   0.00038
  19 3   C  1S          0.00001   0.00390   0.03365  -0.00019   0.00944
  20        2S         -0.00005   0.02003  -0.65447   0.00382  -0.63946
  21        2PX        -0.00031  -0.63627  -0.74223   0.00434  -0.41103
  22        2PY         0.01304  -0.00003   0.00113   0.20611   0.00003
  23        2PZ        -0.00001  -0.00019  -0.00023  -0.00013  -0.00012
  24        3S         -0.00071  -2.14791   1.39509  -0.00781   1.66064
  25        3PX         0.00145   3.13338   2.30975  -0.01378   0.60443
  26        3PY        -0.15652  -0.00002  -0.00534  -0.98174  -0.00026
  27        3PZ         0.00010   0.00095   0.00071   0.00063   0.00018
  28 4   C  1S         -0.01235  -0.01139   0.00518   0.02969   0.00767
  29        2S          0.05661   0.22112  -0.20075  -0.64034  -0.53355
  30        2PX         0.17776   0.30576   0.18378  -0.37644  -0.07068
  31        2PY         0.38921   0.60981  -0.04640  -0.49134  -0.39866
  32        2PZ        -0.00020  -0.00030   0.00009   0.00020   0.00024
  33        3S          0.45867   1.15732   1.22771   1.74985   1.27388
  34        3PX        -0.69321  -1.27647  -1.01603   1.15498  -0.32010
  35        3PY        -1.52418  -2.71379  -0.03138   1.14183   0.75158
  36        3PZ         0.00077   0.00136  -0.00029  -0.00038  -0.00058
  37 5   C  1S          0.02835  -0.00196  -0.01839   0.01511   0.00669
  38        2S         -0.40302  -0.11173   0.41234  -0.53472  -0.26850
  39        2PX         0.37045   0.09585  -0.04160   0.23700   0.29698
  40        2PY        -0.62080  -0.31618   0.38121  -0.14684  -0.23310
  41        2PZ         0.00051   0.00023  -0.00026   0.00017   0.00024
  42        3S          0.56535  -1.08014  -1.41091   1.86782   0.27465
  43        3PX        -1.22612  -0.53638  -0.44470  -0.67491  -0.78082
  44        3PY         1.91440   1.59554  -0.89742  -0.11069  -0.00843
  45        3PZ        -0.00161  -0.00120   0.00044  -0.00014  -0.00023
  46 6   C  1S          0.00002   0.02604  -0.01647   0.00009   0.00737
  47        2S         -0.00010  -0.36943   0.63078  -0.00369  -0.10599
  48        2PX         0.00003   0.22517  -0.36520   0.00219   0.34912
  49        2PY         0.09484   0.00001   0.00120   0.21627   0.00025
  50        2PZ        -0.00006   0.00007  -0.00011  -0.00014   0.00011
  51        3S          0.00074   2.24537  -1.77824   0.01003  -0.32591
  52        3PX         0.00013   0.29079   0.61980  -0.00410  -0.36408
  53        3PY        -0.38428  -0.00007  -0.00638  -1.15403  -0.00095
  54        3PZ         0.00025   0.00009   0.00020   0.00074  -0.00011
  55 7   H  1S         -0.35397   0.01900  -0.26909  -0.17620   0.35942
  56        2S          1.72547  -0.75057   0.82049   0.60769  -0.65578
  57 8   H  1S          0.16214  -0.16935   0.01125  -0.35846   0.32924
  58        2S         -1.02636   1.64422   0.10271   1.52396  -0.82313
  59 9   H  1S          0.00010   0.11358   0.36725  -0.00212   0.33155
  60        2S         -0.00081  -1.50775  -1.89272   0.01112  -0.93503
  61 10  H  1S         -0.16214  -0.16921   0.01533   0.35834   0.32915
  62        2S          1.02708   1.64293   0.08519  -1.52564  -0.82328
  63 11  H  1S          0.35401   0.01881  -0.26708   0.17913   0.35915
  64        2S         -1.72621  -0.74987   0.81368  -0.61604  -0.65540
  65 12  H  1S          0.00012   0.30807  -0.23921   0.00136   0.39395
  66        2S         -0.00018  -0.53309   0.87115  -0.00525  -0.58814
                          56        57        58        59        60
                           V         V         V         V         V
     Eigenvalues --     1.27002   1.27962   1.28771   1.36660   1.36760
   1 1   C  1S         -0.01139  -0.00589  -0.00995   0.01617  -0.02459
   2        2S         -0.44944  -0.34170  -0.46702   0.72516  -1.00116
   3        2PX         0.42831  -0.46149  -0.30242  -0.04024  -0.11145
   4        2PY        -0.47959   0.16403  -0.03992   0.13373  -0.01284
   5        2PZ         0.00044  -0.00025  -0.00007  -0.00010  -0.00002
   6        3S          1.77541   1.23106   1.75272  -2.33193   3.50909
   7        3PX        -2.69787   1.95800   1.66437   0.57570   0.59694
   8        3PY         1.87126  -0.90543  -0.64205  -0.58103  -0.06198
   9        3PZ        -0.00203   0.00118   0.00092   0.00055   0.00022
  10 2   C  1S         -0.01012   0.01034  -0.00797   0.01297   0.02635
  11        2S         -0.33638   0.26953  -0.34284   0.51473   1.15854
  12        2PX         0.28957  -0.51928  -0.45224   0.13347  -0.11749
  13        2PY        -0.08500  -0.02332  -0.48542   0.09931   0.08891
  14        2PZ         0.00014  -0.00014   0.00017  -0.00002  -0.00010
  15        3S          1.44309  -1.19228   1.37213  -1.84740  -3.77309
  16        3PX        -1.45692   1.91257   2.84374  -0.77618   0.59379
  17        3PY        -0.40560   0.73717   2.03716  -0.62996  -0.14384
  18        3PZ        -0.00019   0.00011  -0.00044   0.00017   0.00028
  19 3   C  1S          0.00003   0.01689  -0.00003  -0.02906   0.00011
  20        2S          0.00048   0.44087  -0.00056  -1.26957   0.00453
  21        2PX        -0.00083  -0.43082   0.00075   0.13651  -0.00042
  22        2PY         0.02019  -0.00146  -0.81827   0.00054   0.19565
  23        2PZ        -0.00001  -0.00013   0.00053   0.00004  -0.00013
  24        3S         -0.00324  -2.03757   0.00281   4.16607  -0.01464
  25        3PX         0.00147   0.72880  -0.00133  -0.49517   0.00174
  26        3PY        -0.63686   0.00852   4.26104  -0.00262  -1.16790
  27        3PZ         0.00041   0.00022  -0.00274  -0.00015   0.00075
  28 4   C  1S          0.01017   0.01032   0.00794   0.01280  -0.02644
  29        2S          0.33703   0.26940   0.34155   0.50672  -1.16210
  30        2PX        -0.29143  -0.51664   0.45391   0.13454   0.11664
  31        2PY        -0.08504   0.02214  -0.48555  -0.09885   0.08955
  32        2PZ        -0.00004  -0.00017   0.00045   0.00010  -0.00002
  33        3S         -1.44651  -1.19182  -1.36728  -1.82138   3.78588
  34        3PX         1.46338   1.89734  -2.84975  -0.78255  -0.58847
  35        3PY        -0.40846  -0.72938   2.03990   0.63048  -0.14800
  36        3PZ         0.00071   0.00105  -0.00218  -0.00064  -0.00009
  37 5   C  1S          0.01137  -0.00590   0.00996   0.01633   0.02447
  38        2S          0.44835  -0.34168   0.46803   0.73212   0.99607
  39        2PX        -0.42983  -0.45903   0.30403  -0.03922   0.11166
  40        2PY        -0.48032  -0.16225  -0.03948  -0.13374  -0.01195
  41        2PZ         0.00018  -0.00004   0.00012   0.00007   0.00004
  42        3S         -1.77142   1.23107  -1.75663  -2.35611  -3.49260
  43        3PX         2.70470   1.94293  -1.67129   0.56929  -0.60089
  44        3PY         1.87427   0.89585  -0.64440   0.57922  -0.06597
  45        3PZ        -0.00038   0.00002  -0.00010  -0.00019  -0.00014
  46 6   C  1S         -0.00003  -0.01605   0.00003  -0.02918   0.00011
  47        2S         -0.00158  -0.79648   0.00156  -1.20926   0.00432
  48        2PX        -0.00031  -0.24448   0.00048  -0.09491   0.00027
  49        2PY        -0.82485   0.00150   0.03397  -0.00030  -0.11807
  50        2PZ         0.00053  -0.00007  -0.00002  -0.00003   0.00008
  51        3S          0.00559   2.92113  -0.00514   4.18904  -0.01488
  52        3PX         0.00046   0.37982  -0.00061   0.25177  -0.00095
  53        3PY         4.25187  -0.00891  -0.82437   0.00184   0.93082
  54        3PZ        -0.00273   0.00012   0.00053   0.00007  -0.00060
  55 7   H  1S         -0.28400  -0.10525  -0.24146   0.25284  -0.36761
  56        2S          0.22238   0.09244   0.18886   0.11110  -0.23167
  57 8   H  1S         -0.25392   0.29192  -0.20439   0.16632   0.36073
  58        2S          0.32962  -0.34261   0.27676   0.11808   0.15997
  59 9   H  1S          0.00085   0.45889  -0.00065  -0.37104   0.00121
  60        2S         -0.00147  -0.70211   0.00131  -0.17067   0.00070
  61 10  H  1S          0.25528   0.29177   0.20341   0.16380  -0.36190
  62        2S         -0.33125  -0.34224  -0.27578   0.11695  -0.16075
  63 11  H  1S          0.28386  -0.10539   0.24166   0.25541   0.36586
  64        2S         -0.22237   0.09284  -0.18934   0.11267   0.23093
  65 12  H  1S         -0.00060  -0.34941   0.00070  -0.46765   0.00156
  66        2S          0.00007   0.20480  -0.00036  -0.28618   0.00108
                          61        62        63        64        65
                           V         V         V         V         V
     Eigenvalues --     1.44390   1.44394   1.48375   1.73213   1.73223
   1 1   C  1S          0.00311  -0.00092  -0.01439  -0.02112   0.02366
   2        2S         -0.20449   0.52952  -0.61826  -0.55604   0.61198
   3        2PX        -0.05205   0.21515  -0.04269   0.11033   0.30003
   4        2PY        -0.21457   0.32884  -0.07768  -0.27686   0.04892
   5        2PZ         0.00012  -0.00015   0.00004   0.00021   0.00006
   6        3S         -0.91831   1.05208   1.52650   2.08922  -2.34112
   7        3PX        -0.90096  -1.35900  -0.24041   1.25225  -1.42250
   8        3PY         1.32016  -0.85231  -0.54685   2.34806  -2.40008
   9        3PZ        -0.00112   0.00013   0.00027  -0.00113   0.00111
  10 2   C  1S         -0.00106  -0.00558   0.01875   0.02816   0.00560
  11        2S          0.30235   0.37281   0.76389   0.77258   0.16379
  12        2PX        -0.06257  -0.22622  -0.05278  -0.05669  -0.31310
  13        2PY         0.22366   0.29560   0.09334   0.27375  -0.10526
  14        2PZ        -0.00016  -0.00026  -0.00008  -0.00019  -0.00003
  15        3S          0.63560   1.56913  -2.02529  -2.74414  -0.54107
  16        3PX        -0.89834   1.43428  -0.29430   1.83451   0.56428
  17        3PY        -1.47191  -0.56384   0.32647  -3.16418  -0.69128
  18        3PZ         0.00067   0.00080  -0.00029   0.00260   0.00062
  19 3   C  1S         -0.00648   0.00005  -0.02105  -0.00670  -0.02622
  20        2S          0.44716  -0.00312  -0.83706  -0.19023  -0.74400
  21        2PX        -0.42774   0.00325   0.11370   0.06847   0.26770
  22        2PY        -0.00068  -0.07964  -0.00005  -0.32704   0.08370
  23        2PZ        -0.00013   0.00005   0.00004   0.00023   0.00003
  24        3S          1.77908  -0.01427   2.30195   0.64747   2.53055
  25        3PX         1.39642  -0.01135   0.35908  -0.91938  -3.59503
  26        3PY         0.01548   1.88225   0.00155   0.15850  -0.04154
  27        3PZ         0.00042  -0.00121   0.00010  -0.00038  -0.00107
  28 4   C  1S         -0.00095   0.00558   0.01876  -0.02201   0.01842
  29        2S          0.29677  -0.37846   0.76349  -0.59892   0.51444
  30        2PX        -0.05901   0.22741  -0.05254  -0.10062  -0.30187
  31        2PY        -0.21913   0.29919  -0.09293   0.29068  -0.03904
  32        2PZ         0.00012  -0.00012   0.00004  -0.00022  -0.00007
  33        3S          0.60953  -1.57670  -2.02779   2.14764  -1.79109
  34        3PX        -0.92094  -1.42049  -0.29642  -1.33828   1.37706
  35        3PY         1.46387  -0.58570  -0.32697  -2.44321   2.12488
  36        3PZ        -0.00122  -0.00006   0.00013   0.00116  -0.00094
  37 5   C  1S          0.00314   0.00088  -0.01438   0.02989   0.01062
  38        2S         -0.21246  -0.52546  -0.61882   0.78180   0.26993
  39        2PX        -0.05541  -0.21407  -0.04291   0.04729   0.31615
  40        2PY         0.21958   0.32534   0.07812  -0.26638   0.08996
  41        2PZ        -0.00016  -0.00027  -0.00006   0.00019   0.00004
  42        3S         -0.93611  -1.03925   1.52456  -2.95686  -1.05153
  43        3PX        -0.87948   1.37237  -0.23846  -1.78086  -0.64547
  44        3PY        -1.33251  -0.83288   0.54590   3.21281   0.97840
  45        3PZ         0.00059   0.00095  -0.00043  -0.00261  -0.00083
  46 6   C  1S          0.00066   0.00000   0.01230  -0.00820  -0.03207
  47        2S         -0.61267   0.00457   0.54673  -0.20883  -0.81675
  48        2PX        -0.45378   0.00347   0.07744  -0.06516  -0.25478
  49        2PY        -0.00052  -0.06076  -0.00004   0.32003  -0.08190
  50        2PZ        -0.00014   0.00004   0.00002  -0.00023  -0.00003
  51        3S         -1.19246   0.00916  -1.29987   0.81721   3.19444
  52        3PX         1.62699  -0.01326   0.68359   0.96536   3.77492
  53        3PY         0.01268   1.53863   0.00128  -0.05880   0.01598
  54        3PZ         0.00049  -0.00099   0.00022   0.00033   0.00114
  55 7   H  1S          0.27358  -0.47850  -0.45935   0.46347  -0.46713
  56        2S          0.31067  -0.55724  -0.35187   0.78014  -0.79574
  57 8   H  1S         -0.29335  -0.48635   0.47839  -0.65829  -0.17346
[...]
  60        2S         -0.00228   0.00000  -0.00121  -0.00734  -0.00003
  61 10  H  1S          0.07266   0.00000   0.03200   0.01973   0.06909
  62        2S          0.03215   0.00000   0.01357   0.01243   0.04414
  63 11  H  1S         -0.00012   0.00000   0.00049   0.00021  -0.00393
  64        2S         -0.00091   0.00000   0.00046  -0.00432  -0.00498
  65 12  H  1S          0.00000   0.00000  -0.00002   0.00012  -0.00005
  66        2S          0.00004   0.00000   0.00010   0.00185   0.00010
                          36        37        38        39        40
  36        3PZ         0.17605
  37 5   C  1S          0.00000   2.06274
  38        2S          0.00000  -0.02350   0.32066
  39        2PX         0.00000   0.00000   0.00000   0.41363
  40        2PY         0.00000   0.00000   0.00000   0.00000   0.40118
  41        2PZ         0.03123   0.00000   0.00000   0.00000   0.00000
  42        3S          0.00000  -0.02878   0.18550   0.00000   0.00000
  43        3PX         0.00000   0.00000   0.00000   0.09454   0.00000
  44        3PY         0.00000   0.00000   0.00000   0.00000   0.10509
  45        3PZ         0.06205   0.00000   0.00000   0.00000   0.00000
  46 6   C  1S          0.00000   0.00000  -0.00054  -0.00068  -0.00199
  47        2S          0.00000  -0.00054   0.01135   0.01014   0.03042
  48        2PX         0.00000  -0.00065   0.01002   0.00028   0.02438
  49        2PY         0.00000  -0.00198   0.02999   0.02606   0.04878
  50        2PZ        -0.00129   0.00000   0.00000   0.00000   0.00000
  51        3S          0.00000  -0.00033   0.01632   0.01016   0.02120
  52        3PX         0.00000  -0.00081   0.01313  -0.00759   0.00431
  53        3PY         0.00000  -0.00086   0.01176   0.00984   0.00800
  54        3PZ        -0.00772   0.00000   0.00000   0.00000   0.00000
  55 7   H  1S          0.00000   0.00000   0.00000   0.00000   0.00000
  56        2S          0.00000   0.00000   0.00007   0.00001   0.00032
  57 8   H  1S          0.00000   0.00000   0.00000   0.00000   0.00000
  58        2S          0.00000   0.00000   0.00001   0.00000   0.00000
  59 9   H  1S          0.00000   0.00000   0.00000   0.00000   0.00000
  60        2S          0.00000   0.00000   0.00005   0.00024   0.00003
  61 10  H  1S          0.00000   0.00000  -0.00019  -0.00056  -0.00011
  62        2S          0.00000   0.00012  -0.00172  -0.00541  -0.00061
  63 11  H  1S          0.00000  -0.00198   0.03253   0.02394   0.07226
  64        2S          0.00000  -0.00121   0.01410   0.01262   0.03799
  65 12  H  1S          0.00000   0.00000  -0.00019  -0.00046  -0.00023
  66        2S          0.00000   0.00015  -0.00226  -0.00481  -0.00306
                          41        42        43        44        45
  41        2PZ         0.29456
  42        3S          0.00000   0.17943
  43        3PX         0.00000   0.00000   0.08154
  44        3PY         0.00000   0.00000   0.00000   0.10639
  45        3PZ         0.13573   0.00000   0.00000   0.00000   0.19573
  46 6   C  1S          0.00000  -0.00033   0.00000  -0.00171   0.00000
  47        2S          0.00000   0.01619  -0.00096   0.02588   0.00000
  48        2PX         0.00000   0.00396  -0.00562   0.00246   0.00000
  49        2PY         0.00000   0.02265   0.00711   0.00853   0.00000
  50        2PZ         0.01866   0.00000   0.00000   0.00000   0.03185
  51        3S          0.00000   0.01534   0.00308   0.01450   0.00000
  52        3PX         0.00000   0.00385  -0.01862  -0.00686   0.00000
  53        3PY         0.00000   0.00948   0.00343  -0.00278   0.00000
  54        3PZ         0.03337   0.00000   0.00000   0.00000   0.06197
  55 7   H  1S          0.00000  -0.00001   0.00003   0.00004   0.00000
  56        2S          0.00000   0.00016   0.00014   0.00162   0.00000
  57 8   H  1S          0.00000   0.00001   0.00001   0.00002   0.00000
  58        2S          0.00000   0.00021  -0.00002  -0.00007   0.00000
  59 9   H  1S          0.00000  -0.00001   0.00015  -0.00007   0.00000
  60        2S          0.00000   0.00017   0.00155   0.00000   0.00000
  61 10  H  1S          0.00000  -0.00071  -0.00114  -0.00381   0.00000
  62        2S          0.00000  -0.00252  -0.00586  -0.00391   0.00000
  63 11  H  1S          0.00000   0.02771   0.02341   0.05998   0.00000
  64        2S          0.00000   0.00969   0.01799   0.04545   0.00000
  65 12  H  1S          0.00000  -0.00010  -0.00678   0.00195   0.00000
  66        2S          0.00000  -0.00113  -0.01224  -0.00009   0.00000
                          46        47        48        49        50
  46 6   C  1S          2.06267
  47        2S         -0.02342   0.31918
  48        2PX         0.00000   0.00000   0.39290
  49        2PY         0.00000   0.00000   0.00000   0.41662
  50        2PZ         0.00000   0.00000   0.00000   0.00000   0.29953
  51        3S         -0.02881   0.18579   0.00000   0.00000   0.00000
  52        3PX         0.00000   0.00000   0.11505   0.00000   0.00000
  53        3PY         0.00000   0.00000   0.00000   0.08240   0.00000
  54        3PZ         0.00000   0.00000   0.00000   0.00000   0.14042
  55 7   H  1S          0.00000  -0.00019  -0.00001  -0.00069   0.00000
  56        2S          0.00015  -0.00212  -0.00014  -0.00713   0.00000
  57 8   H  1S          0.00000   0.00000   0.00000   0.00000   0.00000
  58        2S          0.00000   0.00005   0.00016   0.00013   0.00000
  59 9   H  1S          0.00000   0.00000   0.00000   0.00000   0.00000
  60        2S          0.00000   0.00001   0.00000   0.00000   0.00000
  61 10  H  1S          0.00000   0.00000   0.00000   0.00000   0.00000
  62        2S          0.00000   0.00005   0.00016   0.00013   0.00000
  63 11  H  1S          0.00000  -0.00019  -0.00001  -0.00069   0.00000
  64        2S          0.00015  -0.00212  -0.00014  -0.00713   0.00000
  65 12  H  1S         -0.00196   0.03207   0.09574   0.00000   0.00000
  66        2S         -0.00127   0.01474   0.05465   0.00000   0.00000
                          51        52        53        54        55
  51        3S          0.17999
  52        3PX         0.00000   0.12574
  53        3PY         0.00000   0.00000   0.05531
  54        3PZ         0.00000   0.00000   0.00000   0.20616
  55 7   H  1S         -0.00069   0.00048  -0.00596   0.00000   0.22037
  56        2S         -0.00276   0.00042  -0.01295   0.00000   0.09241
  57 8   H  1S         -0.00001  -0.00006   0.00014   0.00000  -0.00001
  58        2S          0.00019   0.00062   0.00094   0.00000  -0.00013
  59 9   H  1S          0.00002   0.00002   0.00000   0.00000   0.00000
  60        2S          0.00021  -0.00006   0.00000   0.00000   0.00000
  61 10  H  1S          0.00000  -0.00006   0.00014   0.00000   0.00000
  62        2S          0.00019   0.00062   0.00094   0.00000   0.00000
  63 11  H  1S         -0.00069   0.00048  -0.00596   0.00000   0.00000
  64        2S         -0.00275   0.00042  -0.01295   0.00000   0.00000
  65 12  H  1S          0.02539   0.08023   0.00000   0.00000  -0.00001
  66        2S          0.00678   0.06626   0.00000   0.00000  -0.00025
                          56        57        58        59        60
  56        2S          0.09950
  57 8   H  1S         -0.00022   0.21656
  58        2S          0.00005   0.07611   0.06913
  59 9   H  1S          0.00000  -0.00001  -0.00014   0.21455
  60        2S         -0.00009  -0.00010   0.00015   0.06855   0.05691
  61 10  H  1S          0.00000   0.00000   0.00000  -0.00001  -0.00010
  62        2S          0.00000   0.00000  -0.00009  -0.00014   0.00014
  63 11  H  1S          0.00000   0.00000   0.00000   0.00000   0.00000
  64        2S         -0.00011   0.00000   0.00000   0.00000  -0.00009
  65 12  H  1S         -0.00021   0.00000   0.00000   0.00000   0.00000
  66        2S         -0.00012   0.00000  -0.00010   0.00000   0.00000
                          61        62        63        64        65
  61 10  H  1S          0.21657
  62        2S          0.07612   0.06914
  63 11  H  1S         -0.00001  -0.00013   0.22037
  64        2S         -0.00022   0.00005   0.09239   0.09947
  65 12  H  1S          0.00000   0.00000  -0.00001  -0.00021   0.22215
  66        2S          0.00000  -0.00010  -0.00025  -0.00012   0.10117
                          66
  66        2S          0.11809
     Gross orbital populations:
                           1
   1 1   C  1S          1.99772
   2        2S          0.69419
   3        2PX         0.75195
   4        2PY         0.73103
   5        2PZ         0.52834
   6        3S          0.48785
   7        3PX         0.22165
   8        3PY         0.29564
   9        3PZ         0.49345
  10 2   C  1S          1.99774
  11        2S          0.69817
  12        2PX         0.74760
  13        2PY         0.74955
  14        2PZ         0.51160
  15        3S          0.49492
  16        3PX         0.19139
  17        3PY         0.33965
  18        3PZ         0.46652
  19 3   C  1S          1.99775
  20        2S          0.70032
  21        2PX         0.75273
  22        2PY         0.75145
  23        2PZ         0.50312
  24        3S          0.49848
  25        3PX         0.39658
  26        3PY         0.14001
  27        3PZ         0.45319
  28 4   C  1S          1.99774
  29        2S          0.69817
  30        2PX         0.74760
  31        2PY         0.74954
  32        2PZ         0.51161
  33        3S          0.49496
  34        3PX         0.19142
  35        3PY         0.33962
  36        3PZ         0.46653
  37 5   C  1S          1.99772
  38        2S          0.69419
  39        2PX         0.75196
  40        2PY         0.73103
  41        2PZ         0.52833
  42        3S          0.48782
  43        3PX         0.22162
  44        3PY         0.29567
  45        3PZ         0.49344
  46 6   C  1S          1.99771
  47        2S          0.69232
  48        2PX         0.71773
  49        2PY         0.75805
  50        2PZ         0.53674
  51        3S          0.48427
  52        3PX         0.34702
  53        3PY         0.16192
  54        3PZ         0.50714
  55 7   H  1S          0.53922
  56        2S          0.29028
  57 8   H  1S          0.53153
  58        2S          0.23965
  59 9   H  1S          0.52752
  60        2S          0.21623
  61 10  H  1S          0.53154
  62        2S          0.23968
  63 11  H  1S          0.53921
  64        2S          0.29024
  65 12  H  1S          0.54286
  66        2S          0.31757
          Condensed to atoms (all electrons):
               1          2          3          4          5          6
     1  C    4.993058   0.513107  -0.056981  -0.030665  -0.055763   0.515598
     2  C    0.513107   4.978364   0.513331  -0.057330  -0.030662  -0.056193
     3  C   -0.056981   0.513331   4.971300   0.513337  -0.056953  -0.030855
     4  C   -0.030665  -0.057330   0.513337   4.978423   0.513108  -0.056222
     5  C   -0.055763  -0.030662  -0.056953   0.513108   4.993007   0.515582
     6  C    0.515598  -0.056193  -0.030855  -0.056222   0.515582   5.000966
     7  H    0.374487  -0.021922   0.002460   0.000091   0.002377  -0.031573
     8  H   -0.026428   0.373782  -0.018042   0.002243   0.000170   0.002166
     9  H    0.002111  -0.020202   0.371587  -0.020215   0.002111   0.000195
    10  H    0.000170   0.002244  -0.018053   0.373795  -0.026436   0.002168
    11  H    0.002376   0.000091   0.002457  -0.021912   0.374479  -0.031561
    12  H   -0.029256   0.002538   0.000034   0.002539  -0.029241   0.372634
               7          8          9         10         11         12
     1  C    0.374487  -0.026428   0.002111   0.000170   0.002376  -0.029256
     2  C   -0.021922   0.373782  -0.020202   0.002244   0.000091   0.002538
     3  C    0.002460  -0.018042   0.371587  -0.018053   0.002457   0.000034
     4  C    0.000091   0.002243  -0.020215   0.373795  -0.021912   0.002539
     5  C    0.002377   0.000170   0.002111  -0.026436   0.374479  -0.029241
     6  C   -0.031573   0.002166   0.000195   0.002168  -0.031561   0.372634
     7  H    0.504682  -0.000308  -0.000097   0.000005  -0.000114  -0.000590
     8  H   -0.000308   0.437905  -0.000108  -0.000092   0.000005  -0.000108
     9  H   -0.000097  -0.000108   0.408570  -0.000110  -0.000097   0.000005
    10  H    0.000005  -0.000092  -0.000110   0.437938  -0.000308  -0.000108
    11  H   -0.000114   0.000005  -0.000097  -0.000308   0.504630  -0.000589
    12  H   -0.000590  -0.000108   0.000005  -0.000108  -0.000589   0.542572
 Mulliken charges:
               1
     1  C   -0.201816
     2  C   -0.197149
     3  C   -0.193622
     4  C   -0.197192
     5  C   -0.201778
     6  C   -0.202905
     7  H    0.170502
     8  H    0.228813
     9  H    0.256250
    10  H    0.228785
    11  H    0.170542
    12  H    0.139569
 Sum of Mulliken charges =   0.00000
 Mulliken charges with hydrogens summed into heavy atoms:
               1
     1  C   -0.031313
     2  C    0.031665
     3  C    0.062628
     4  C    0.031593
     5  C   -0.031236
     6  C   -0.063336
 Electronic spatial extent (au):  <R**2>=            655.0666
 Charge=              0.0000 electrons
 Dipole moment (field-independent basis, Debye):
    X=              1.7621    Y=              0.0000    Z=              0.0004  Tot=              1.7621
 Quadrupole moment (field-independent basis, Debye-Ang):
   XX=            -30.0386   YY=            -31.7194   ZZ=            -40.4473
   XY=              1.8128   XZ=              0.0020   YZ=             -0.0052
 Traceless Quadrupole moment (field-independent basis, Debye-Ang):
   XX=              4.0298   YY=              2.3490   ZZ=             -6.3789
   XY=              1.8128   XZ=              0.0020   YZ=             -0.0052
 Octapole moment (field-independent basis, Debye-Ang**2):
  XXX=            -35.9604  YYY=            -97.9158  ZZZ=              0.0605  XYY=            -10.5264
  XXY=            -30.9094  XXZ=              0.0196  XZZ=            -18.8648  YZZ=            -41.6194
  YYZ=              0.0053  XYZ=             -0.0021
 Hexadecapole moment (field-independent basis, Debye-Ang**3):
 XXXX=           -294.8454 YYYY=           -469.3171 ZZZZ=            -43.9248 XXXY=            -36.9956
 XXXZ=             -0.0014 YYYX=            -36.3326 YYYZ=              0.0837 ZZZX=             -0.0161
 ZZZY=              0.1555 XXYY=           -125.6363 XXZZ=            -71.8312 YYZZ=           -105.8556
 XXYZ=              0.0343 YYXZ=             -0.0080 ZZXY=            -19.4095
 N-N= 2.025334968734D+02 E-N=-9.422767624077D+02  KE= 2.306037867560D+02
 Orbital energies and kinetic energies (alpha):
                                 1                 2
   1         O               -11.239125         16.017728
   2         O               -11.234594         16.019340
   3         O               -11.234438         16.022440
   4         O               -11.225855         16.018696
   5         O               -11.225713         16.020772
   6         O               -11.221268         16.023061
   7         O                -1.140455          1.463554
   8         O                -1.003663          1.579286
   9         O                -1.003490          1.578742
  10         O                -0.811206          1.438611
  11         O                -0.810973          1.440078
  12         O                -0.698429          0.924522
  13         O                -0.628520          1.260241
  14         O                -0.605838          1.440034
  15         O                -0.575661          1.181382
  16         O                -0.574984          1.180394
  17         O                -0.489066          0.879315
  18         O                -0.477003          1.370249
  19         O                -0.476392          1.370615
  20         O                -0.323767          1.036614
  21         O                -0.322987          1.036219
  22         V                 0.153721          1.180361
  23         V                 0.154438          1.180259
  24         V                 0.231734          0.802629
  25         V                 0.291710          0.845451
  26         V                 0.297569          0.867504
  27         V                 0.323389          0.915869
  28         V                 0.344187          1.013457
  29         V                 0.366513          1.021616
  30         V                 0.369218          1.396503
  31         V                 0.475117          1.315099
  32         V                 0.476572          1.308222
  33         V                 0.505579          1.342723
  34         V                 0.505918          1.343142
  35         V                 0.692470          1.501848
  36         V                 0.762944          2.065906
  37         V                 0.778049          2.915369
  38         V                 0.778180          1.574820
  39         V                 0.791214          1.771320
  40         V                 0.843551          1.619090
  41         V                 0.853592          2.182388
  42         V                 0.854557          2.180845
  43         V                 0.880351          2.659831
  44         V                 0.880383          2.651309
  45         V                 0.907716          2.123728
  46         V                 0.909492          2.102474
  47         V                 0.923805          2.401399
  48         V                 0.925236          2.398533
  49         V                 1.001054          2.481484
  50         V                 1.126904          3.095680
  51         V                 1.138182          2.985211
  52         V                 1.151849          3.066890
  53         V                 1.173337          2.948847
  54         V                 1.175148          2.941678
  55         V                 1.252499          2.915925
  56         V                 1.270025          3.242429
  57         V                 1.279624          2.969391
  58         V                 1.287710          3.264199
  59         V                 1.366599          2.417954
  60         V                 1.367596          2.414026
  61         V                 1.443896          2.374175
  62         V                 1.443944          2.373448
  63         V                 1.483750          2.507276
  64         V                 1.732127          2.655998
  65         V                 1.732227          2.655570
  66         V                 2.172178          2.966568
 Total kinetic energy from orbitals= 2.306037867560D+02
 Unable to Open any file for archive entry.
 1\1\GINC-MEDUSA\SP\RHF\6-31G\C6H6\PLESTRAN\26-Oct-2015\0\\# hf/6-31G g
 finput pop=full nosymm Field=X-100\\Benzene 6-31G\\0,1\C,0,-0.20698515
 82,-0.182179772,0.0000714421\C,0,1.1916738876,-0.1823529436,0.00049858
 61\C,0,1.8910553573,1.0288676731,-0.0000660445\C,0,1.1917349868,2.2401
 336715,-0.0010564977\C,0,-0.206924055,2.2403068493,-0.0014838269\C,0,-
 0.9063055337,1.0290862369,-0.0009191682\H,0,-0.750746176,-1.1238955859
 ,0.0005098114\H,0,1.7352854346,-1.124149144,0.0012705069\H,0,2.9784784
 245,1.0289339946,0.0002669247\H,0,1.7354959994,3.1818494841,-0.0014954
 845\H,0,-0.7505356043,3.1821030485,-0.0022553738\H,0,-1.9937286031,1.0
 290199075,-0.0012518757\\Version=ES64L-GDVRevI.03+\HF=-230.6264176\EFC
 =0.\RMSD=6.153e-09\Dipole=0.6932768,-0.0000103,0.0001557\Quadrupole=2.
 9960887,1.7464388,-4.7425276,1.3477435,0.0014742,-0.0038672\PG=CI [X(C
 6H6)]\\@
 The archive entry for this job was punched.


 IF MATHEMATICALLY YOU END UP WITH THE INCORRECT ANSWER,
 TRY MULTIPLYING BY THE PAGE NUMBER.
 Job cpu time:       0 days  0 hours  0 minutes  1.1 seconds.
 Elapsed time:       0 days  0 hours  0 minutes  1.0 seconds.
 File lengths (MBytes):  RWF=      5 Int=      0 D2E=      0 Chk=      1 Scr=      1
 Normal termination of Gaussian DV at Mon Oct 26 18:16:28 2015.
