 Entering Gaussian System, Link 0=gdv
 Input=benzene_cc-pVDZ_field.com
 Output=benzene_cc-pVDZ_field.log
 Initial command:
 /home/gauss/gdvi01p/gdv/l1.exe "/home/GauScr/Gau-32715.inp" -scrdir="/home/GauScr/"
 Entering Link 1 = /home/gauss/gdvi01p/gdv/l1.exe PID=     32723.
  
 Copyright (c) 1988,1990,1992,1993,1995,1998,2003,2009,2014,
            Gaussian, Inc.  All Rights Reserved.
  
 This is the private, development version of
 the Gaussian(R) DV system of programs. It is based on
 the Gaussian(R) 09 system (copyright 2009, Gaussian, Inc.),
 the Gaussian(R) 03 system (copyright 2003, Gaussian, Inc.),
 the Gaussian(R) 98 system (copyright 1998, Gaussian, Inc.),
 the Gaussian(R) 94 system (copyright 1995, Gaussian, Inc.),
 the Gaussian 92(TM) system (copyright 1992, Gaussian, Inc.),
 the Gaussian 90(TM) system (copyright 1990, Gaussian, Inc.),
 the Gaussian 88(TM) system (copyright 1988, Gaussian, Inc.),
 the Gaussian 86(TM) system (copyright 1986, Carnegie Mellon
 University), and the Gaussian 82(TM) system (copyright 1983,
 Carnegie Mellon University). Gaussian is a federally registered
 trademark of Gaussian, Inc.
  
 This software contains proprietary and confidential information,
 including trade secrets, belonging to Gaussian, Inc.
  
 This software is provided under written license and may be
 used, copied, transmitted, or stored only in accord with that
 written license.
  
 The following legend is applicable only to US Government
 contracts under FAR:
  
                    RESTRICTED RIGHTS LEGEND
  
 Use, reproduction and disclosure by the US Government is
 subject to restrictions as set forth in subparagraphs (a)
 and (c) of the Commercial Computer Software - Restricted
 Rights clause in FAR 52.227-19.
  
 Gaussian, Inc.
 340 Quinnipiac St., Bldg. 40, Wallingford CT 06492
  
  
 ---------------------------------------------------------------
 Warning -- This program may not be used in any manner that
 competes with the business of Gaussian, Inc. or will provide
 assistance to any competitor of Gaussian, Inc.  The licensee
 of this program is prohibited from giving any competitor of
 Gaussian, Inc. access to this program.  By using this program,
 the user acknowledges that Gaussian, Inc. is engaged in the
 business of creating and licensing software in the field of
 computational chemistry and represents and warrants to the
 licensee that it is not a competitor of Gaussian, Inc. and that
 it will not use this program in any manner prohibited above.
 ---------------------------------------------------------------
  

 Cite this work as:
 Gaussian Development Version, Revision I.01+,
 M. J. Frisch, G. W. Trucks, H. B. Schlegel, G. E. Scuseria, 
 M. A. Robb, J. R. Cheeseman, G. Scalmani, V. Barone, B. Mennucci, 
 G. A. Petersson, H. Nakatsuji, M. Caricato, X. Li, H. P. Hratchian, 
 A. F. Izmaylov, J. Bloino, B. G. Janesko, F. Lipparini, G. Zheng, 
 J. L. Sonnenberg, W. Liang, M. Hada, M. Ehara, K. Toyota, R. Fukuda, 
 J. Hasegawa, M. Ishida, T. Nakajima, Y. Honda, O. Kitao, H. Nakai, 
 T. Vreven, J. A. Montgomery, Jr., J. E. Peralta, F. Ogliaro, 
 M. Bearpark, J. J. Heyd, E. Brothers, K. N. Kudin, V. N. Staroverov, 
 T. Keith, R. Kobayashi, J. Normand, K. Raghavachari, A. Rendell, 
 J. C. Burant, S. S. Iyengar, J. Tomasi, M. Cossi, N. Rega, 
 J. M. Millam, M. Klene, J. E. Knox, J. B. Cross, V. Bakken, 
 C. Adamo, J. Jaramillo, R. Gomperts, R. E. Stratmann, O. Yazyev, 
 A. J. Austin, R. Cammi, C. Pomelli, J. W. Ochterski, R. L. Martin, 
 K. Morokuma, V. G. Zakrzewski, G. A. Voth, P. Salvador, 
 J. J. Dannenberg, S. Dapprich, P. V. Parandekar, N. J. Mayhall, 
 A. D. Daniels, O. Farkas, J. B. Foresman, J. V. Ortiz, 
 J. Cioslowski, and D. J. Fox, Gaussian, Inc., Wallingford CT, 2010.
 
 *******************************************
 Gaussian DV:  ES64L-GDVRevI.01+ 11-Sep-2014
                 29-Sep-2015 
 *******************************************
 ---------------------------------------------------
 # hf/cc-pVDZ gfinput pop=full nosymm 6D Field=X-100
 ---------------------------------------------------
 1/38=1,172=1/1;
 2/12=2,15=1,17=6,18=5,40=1/2;
 3/5=16,8=2,11=9,14=1,15=-100,24=10,25=1,30=1/1,2,3;
 4//1;
 5/5=2,38=5/2;
 6/7=3,28=1/1;
 99/5=1,9=1/99;
 ---------------
 Benzene cc-pVDZ
 ---------------
 Symbolic Z-matrix:
 Charge =  0 Multiplicity = 1
 C                    -0.64864   0.24131  -0.00045 
 C                     0.74652   0.24131  -0.00045 
 C                     1.44406   1.44906  -0.00045 
 C                     0.74641   2.65757  -0.00165 
 C                    -0.64842   2.65749  -0.00213 
 C                    -1.34602   1.44928  -0.00113 
 H                    -1.19839  -0.71101   0. 
 H                     1.29603  -0.71121   0.00087 
 H                     2.54374   1.44914   0.00018 
 H                     1.29661   3.60971  -0.00171 
 H                    -1.19854   3.60977  -0.00308 
 H                    -2.44562   1.44947  -0.00131 
 
                          Input orientation:                          
 ---------------------------------------------------------------------
 Center     Atomic      Atomic             Coordinates (Angstroms)
 Number     Number       Type             X           Y           Z
 ---------------------------------------------------------------------
      1          6           0       -0.648635    0.241308   -0.000450
      2          6           0        0.746525    0.241308   -0.000450
      3          6           0        1.444063    1.449059   -0.000450
      4          6           0        0.746409    2.657568   -0.001649
      5          6           0       -0.648416    2.657490   -0.002128
      6          6           0       -1.346017    1.449284   -0.001132
      7          1           0       -1.198394   -0.711009    0.000000
      8          1           0        1.296033   -0.711205    0.000865
      9          1           0        2.543743    1.449139    0.000184
     10          1           0        1.296609    3.609711   -0.001708
     11          1           0       -1.198538    3.609771   -0.003081
     12          1           0       -2.445621    1.449467   -0.001312
 ---------------------------------------------------------------------
                    Distance matrix (angstroms):
                    1          2          3          4          5
     1  C    0.000000
     2  C    1.395160   0.000000
     3  C    2.416205   1.394712   0.000000
     4  C    2.790065   2.416260   1.395427   0.000000
     5  C    2.416183   2.789946   2.416356   1.394825   0.000000
     6  C    1.394829   2.416183   2.790080   2.416236   1.395138
     7  H    1.099610   2.165553   3.412986   3.889675   3.413102
     8  H    2.165414   1.099655   2.165330   3.413316   3.889601
     9  H    3.413229   2.165375   1.099680   2.165806   3.413209
    10  H    3.889745   3.413024   2.165678   1.099680   2.165606
    11  H    3.413055   3.889707   3.413506   2.165528   1.099761
    12  H    2.165365   3.413128   3.889684   3.412999   2.165471
                    6          7          8          9         10
     6  C    0.000000
     7  H    2.165331   0.000000
     8  H    3.412938   2.494427   0.000000
     9  H    3.889760   4.320860   2.494768   0.000000
    10  H    3.413344   4.989355   4.320917   2.494678   0.000000
    11  H    2.165516   4.320781   4.989362   4.321228   2.495147
    12  H    1.099604   2.494641   4.320704   4.989364   4.320988
                   11         12
    11  H    0.000000
    12  H    2.494420   0.000000
 Symmetry turned off by external request.
 Stoichiometry    C6H6
 Framework group  C1[X(C6H6)]
 Deg. of freedom    30
 Full point group                 C1      NOp   1
 Rotational constants (GHZ):      5.6865650      5.6862640      2.8432074
 Standard basis: CC-pVDZ (6D, 7F)
 The following finite field(s) will be applied:
 An electric field of             -0.0100  0.0000  0.0000
 AO basis set in the form of general basis input (Overlap normalization):
      1 0
 S   7 1.00       0.000000000000
      0.6665000000D+04  0.6935163173D-03
      0.1000000000D+04  0.5341502433D-02
      0.2280000000D+03  0.2713667141D-01
      0.6471000000D+02  0.1019923853D+00
      0.2106000000D+02  0.2755086365D+00
      0.7495000000D+01  0.4510864331D+00
      0.2797000000D+01  0.2875657448D+00
 S   7 1.00       0.000000000000
      0.6665000000D+04  0.7733547404D-05
      0.2280000000D+03  0.2780721367D-03
      0.6471000000D+02 -0.2578756542D-02
      0.2106000000D+02 -0.8950876838D-02
      0.7495000000D+01 -0.1060588547D+00
      0.2797000000D+01 -0.1315176856D+00
      0.5215000000D+00  0.1099486598D+01
 S   1 1.00       0.000000000000
      0.1596000000D+00  0.1000000000D+01
 P   3 1.00       0.000000000000
      0.9439000000D+01  0.5697925159D-01
      0.2002000000D+01  0.3132072115D+00
      0.5456000000D+00  0.7603767417D+00
 P   1 1.00       0.000000000000
      0.1517000000D+00  0.1000000000D+01
 D   1 1.00       0.000000000000
      0.5500000000D+00  0.1000000000D+01
 ****
      2 0
 S   7 1.00       0.000000000000
      0.6665000000D+04  0.6935163173D-03
      0.1000000000D+04  0.5341502433D-02
      0.2280000000D+03  0.2713667141D-01
      0.6471000000D+02  0.1019923853D+00
      0.2106000000D+02  0.2755086365D+00
      0.7495000000D+01  0.4510864331D+00
      0.2797000000D+01  0.2875657448D+00
 S   7 1.00       0.000000000000
      0.6665000000D+04  0.7733547404D-05
      0.2280000000D+03  0.2780721367D-03
      0.6471000000D+02 -0.2578756542D-02
      0.2106000000D+02 -0.8950876838D-02
      0.7495000000D+01 -0.1060588547D+00
      0.2797000000D+01 -0.1315176856D+00
      0.5215000000D+00  0.1099486598D+01
 S   1 1.00       0.000000000000
      0.1596000000D+00  0.1000000000D+01
 P   3 1.00       0.000000000000
      0.9439000000D+01  0.5697925159D-01
      0.2002000000D+01  0.3132072115D+00
      0.5456000000D+00  0.7603767417D+00
 P   1 1.00       0.000000000000
      0.1517000000D+00  0.1000000000D+01
 D   1 1.00       0.000000000000
      0.5500000000D+00  0.1000000000D+01
 ****
      3 0
 S   7 1.00       0.000000000000
      0.6665000000D+04  0.6935163173D-03
      0.1000000000D+04  0.5341502433D-02
      0.2280000000D+03  0.2713667141D-01
      0.6471000000D+02  0.1019923853D+00
      0.2106000000D+02  0.2755086365D+00
      0.7495000000D+01  0.4510864331D+00
      0.2797000000D+01  0.2875657448D+00
 S   7 1.00       0.000000000000
      0.6665000000D+04  0.7733547404D-05
      0.2280000000D+03  0.2780721367D-03
      0.6471000000D+02 -0.2578756542D-02
      0.2106000000D+02 -0.8950876838D-02
      0.7495000000D+01 -0.1060588547D+00
      0.2797000000D+01 -0.1315176856D+00
      0.5215000000D+00  0.1099486598D+01
 S   1 1.00       0.000000000000
      0.1596000000D+00  0.1000000000D+01
 P   3 1.00       0.000000000000
      0.9439000000D+01  0.5697925159D-01
      0.2002000000D+01  0.3132072115D+00
      0.5456000000D+00  0.7603767417D+00
 P   1 1.00       0.000000000000
      0.1517000000D+00  0.1000000000D+01
 D   1 1.00       0.000000000000
      0.5500000000D+00  0.1000000000D+01
 ****
      4 0
 S   7 1.00       0.000000000000
      0.6665000000D+04  0.6935163173D-03
      0.1000000000D+04  0.5341502433D-02
      0.2280000000D+03  0.2713667141D-01
      0.6471000000D+02  0.1019923853D+00
      0.2106000000D+02  0.2755086365D+00
      0.7495000000D+01  0.4510864331D+00
      0.2797000000D+01  0.2875657448D+00
 S   7 1.00       0.000000000000
      0.6665000000D+04  0.7733547404D-05
      0.2280000000D+03  0.2780721367D-03
      0.6471000000D+02 -0.2578756542D-02
      0.2106000000D+02 -0.8950876838D-02
      0.7495000000D+01 -0.1060588547D+00
      0.2797000000D+01 -0.1315176856D+00
      0.5215000000D+00  0.1099486598D+01
 S   1 1.00       0.000000000000
      0.1596000000D+00  0.1000000000D+01
 P   3 1.00       0.000000000000
      0.9439000000D+01  0.5697925159D-01
      0.2002000000D+01  0.3132072115D+00
      0.5456000000D+00  0.7603767417D+00
 P   1 1.00       0.000000000000
      0.1517000000D+00  0.1000000000D+01
 D   1 1.00       0.000000000000
      0.5500000000D+00  0.1000000000D+01
 ****
      5 0
 S   7 1.00       0.000000000000
      0.6665000000D+04  0.6935163173D-03
      0.1000000000D+04  0.5341502433D-02
      0.2280000000D+03  0.2713667141D-01
      0.6471000000D+02  0.1019923853D+00
      0.2106000000D+02  0.2755086365D+00
      0.7495000000D+01  0.4510864331D+00
      0.2797000000D+01  0.2875657448D+00
 S   7 1.00       0.000000000000
      0.6665000000D+04  0.7733547404D-05
      0.2280000000D+03  0.2780721367D-03
      0.6471000000D+02 -0.2578756542D-02
      0.2106000000D+02 -0.8950876838D-02
      0.7495000000D+01 -0.1060588547D+00
      0.2797000000D+01 -0.1315176856D+00
      0.5215000000D+00  0.1099486598D+01
 S   1 1.00       0.000000000000
      0.1596000000D+00  0.1000000000D+01
 P   3 1.00       0.000000000000
      0.9439000000D+01  0.5697925159D-01
      0.2002000000D+01  0.3132072115D+00
      0.5456000000D+00  0.7603767417D+00
 P   1 1.00       0.000000000000
      0.1517000000D+00  0.1000000000D+01
 D   1 1.00       0.000000000000
      0.5500000000D+00  0.1000000000D+01
 ****
      6 0
 S   7 1.00       0.000000000000
      0.6665000000D+04  0.6935163173D-03
      0.1000000000D+04  0.5341502433D-02
      0.2280000000D+03  0.2713667141D-01
      0.6471000000D+02  0.1019923853D+00
      0.2106000000D+02  0.2755086365D+00
      0.7495000000D+01  0.4510864331D+00
      0.2797000000D+01  0.2875657448D+00
 S   7 1.00       0.000000000000
      0.6665000000D+04  0.7733547404D-05
      0.2280000000D+03  0.2780721367D-03
      0.6471000000D+02 -0.2578756542D-02
      0.2106000000D+02 -0.8950876838D-02
      0.7495000000D+01 -0.1060588547D+00
      0.2797000000D+01 -0.1315176856D+00
      0.5215000000D+00  0.1099486598D+01
 S   1 1.00       0.000000000000
      0.1596000000D+00  0.1000000000D+01
 P   3 1.00       0.000000000000
      0.9439000000D+01  0.5697925159D-01
      0.2002000000D+01  0.3132072115D+00
      0.5456000000D+00  0.7603767417D+00
 P   1 1.00       0.000000000000
      0.1517000000D+00  0.1000000000D+01
 D   1 1.00       0.000000000000
      0.5500000000D+00  0.1000000000D+01
 ****
      7 0
 S   3 1.00       0.000000000000
      0.1301000000D+02  0.3349872639D-01
      0.1962000000D+01  0.2348008012D+00
      0.4446000000D+00  0.8136829579D+00
 S   1 1.00       0.000000000000
      0.1220000000D+00  0.1000000000D+01
 P   1 1.00       0.000000000000
      0.7270000000D+00  0.1000000000D+01
 ****
      8 0
 S   3 1.00       0.000000000000
      0.1301000000D+02  0.3349872639D-01
      0.1962000000D+01  0.2348008012D+00
      0.4446000000D+00  0.8136829579D+00
 S   1 1.00       0.000000000000
      0.1220000000D+00  0.1000000000D+01
 P   1 1.00       0.000000000000
      0.7270000000D+00  0.1000000000D+01
 ****
      9 0
 S   3 1.00       0.000000000000
      0.1301000000D+02  0.3349872639D-01
      0.1962000000D+01  0.2348008012D+00
      0.4446000000D+00  0.8136829579D+00
 S   1 1.00       0.000000000000
      0.1220000000D+00  0.1000000000D+01
 P   1 1.00       0.000000000000
      0.7270000000D+00  0.1000000000D+01
 ****
     10 0
 S   3 1.00       0.000000000000
      0.1301000000D+02  0.3349872639D-01
      0.1962000000D+01  0.2348008012D+00
      0.4446000000D+00  0.8136829579D+00
 S   1 1.00       0.000000000000
      0.1220000000D+00  0.1000000000D+01
 P   1 1.00       0.000000000000
      0.7270000000D+00  0.1000000000D+01
 ****
     11 0
 S   3 1.00       0.000000000000
      0.1301000000D+02  0.3349872639D-01
      0.1962000000D+01  0.2348008012D+00
      0.4446000000D+00  0.8136829579D+00
 S   1 1.00       0.000000000000
      0.1220000000D+00  0.1000000000D+01
 P   1 1.00       0.000000000000
      0.7270000000D+00  0.1000000000D+01
 ****
     12 0
 S   3 1.00       0.000000000000
      0.1301000000D+02  0.3349872639D-01
      0.1962000000D+01  0.2348008012D+00
      0.4446000000D+00  0.8136829579D+00
 S   1 1.00       0.000000000000
      0.1220000000D+00  0.1000000000D+01
 P   1 1.00       0.000000000000
      0.7270000000D+00  0.1000000000D+01
 ****

   120 basis functions,   240 primitive gaussians,   120 cartesian basis functions
    21 alpha electrons       21 beta electrons
       nuclear repulsion energy       203.0307491037 Hartrees.
 NAtoms=   12 NActive=   12 NUniq=   12 SFac= 1.00D+00 NAtFMM=   60 NAOKFM=F Big=F
 Integral buffers will be    131072 words long.
 Raffenetti 1 integral format.
 Two-electron integral symmetry is turned off.
 One-electron integrals computed using PRISM.
 NBasis=   120 RedAO= T EigKep=  3.35D-04  NBF=   120
 NBsUse=   120 1.00D-06 EigRej= -1.00D+00 NBFU=   120
 The nuclear repulsion energy is now       202.9918701540 hartrees.
 ExpMin= 1.22D-01 ExpMax= 6.67D+03 ExpMxC= 2.28D+02 IAcc=1 IRadAn=         1 AccDes= 0.00D+00
 Harris functional with IExCor=  205 and IRadAn=       1 diagonalized for initial guess.
 HarFok:  IExCor=  205 AccDes= 0.00D+00 IRadAn=         1 IDoV= 1 UseB2=F ITyADJ=14
 ICtDFT=  3500011 ScaDFX=  1.000000  1.000000  1.000000  1.000000
 FoFCou: FMM=F IPFlag=           0 FMFlag=      100000 FMFlg1=           0
         NFxFlg=           0 DoJE=T BraDBF=F KetDBF=T FulRan=T
         wScrn=  0.000000 ICntrl=       500 IOpCl=  0 I1Cent=   200000004 NGrid=           0
         NMat0=    1 NMatS0=      1 NMatT0=    0 NMatD0=    1 NMtDS0=    0 NMtDT0=    0
 Symmetry not used in FoFCou.
 Keep R1 ints in memory in canonical form, NReq=27311712.
 Requested convergence on RMS density matrix=1.00D-08 within 128 cycles.
 Requested convergence on MAX density matrix=1.00D-06.
 Requested convergence on             energy=1.00D-06.
 No special actions if energy rises.
 SCF Done:  E(RHF) =  -230.725195895     A.U. after   12 cycles
            NFock= 12  Conv=0.82D-08     -V/T= 2.0028

 **********************************************************************

            Population analysis using the SCF density.

 **********************************************************************

 Alpha  occ. eigenvalues --  -11.25039 -11.24594 -11.24576 -11.23739 -11.23722
 Alpha  occ. eigenvalues --  -11.23288  -1.14774  -1.01110  -1.01090  -0.81832
 Alpha  occ. eigenvalues --   -0.81810  -0.70113  -0.63445  -0.61500  -0.58094
 Alpha  occ. eigenvalues --   -0.58024  -0.49939  -0.48742  -0.48685  -0.33362
 Alpha  occ. eigenvalues --   -0.33288
 Alpha virt. eigenvalues --    0.13719   0.13791   0.16387   0.20983   0.21864
 Alpha virt. eigenvalues --    0.24699   0.26494   0.29493   0.35175   0.43347
 Alpha virt. eigenvalues --    0.43515   0.46989   0.47011   0.58128   0.58554
 Alpha virt. eigenvalues --    0.66070   0.66511   0.67867   0.70953   0.71070
 Alpha virt. eigenvalues --    0.73105   0.73286   0.73480   0.73575   0.74378
 Alpha virt. eigenvalues --    0.82210   0.82349   0.83657   0.83776   0.88204
 Alpha virt. eigenvalues --    0.88247   0.91113   0.97984   0.98227   1.04819
 Alpha virt. eigenvalues --    1.07966   1.08192   1.12774   1.15180   1.18748
 Alpha virt. eigenvalues --    1.18812   1.24257   1.24271   1.24425   1.24459
 Alpha virt. eigenvalues --    1.28800   1.31944   1.31970   1.46063   1.50887
 Alpha virt. eigenvalues --    1.50919   1.72159   1.73670   1.74046   1.76789
 Alpha virt. eigenvalues --    1.78550   1.85786   1.85839   1.87938   1.87965
 Alpha virt. eigenvalues --    1.88774   1.93336   1.94522   1.94818   1.95252
 Alpha virt. eigenvalues --    1.95333   2.08778   2.08807   2.10587   2.14405
 Alpha virt. eigenvalues --    2.14526   2.15270   2.15402   2.16981   2.25480
 Alpha virt. eigenvalues --    2.25508   2.25901   2.26211   2.30985   2.50007
 Alpha virt. eigenvalues --    2.54715   2.62042   2.72342   2.72355   2.74640
 Alpha virt. eigenvalues --    2.74652   2.79887   2.79949   2.86460   2.99737
 Alpha virt. eigenvalues --    3.10025   3.10357   3.11615   3.16509   3.16514
 Alpha virt. eigenvalues --    3.61629   3.61651   3.83852   4.46817
     Molecular Orbital Coefficients:
                           1         2         3         4         5
                           O         O         O         O         O
     Eigenvalues --   -11.25039 -11.24594 -11.24576 -11.23739 -11.23722
   1 1   C  1S          0.13017  -0.68984   0.70397  -0.03754  -0.05758
   2        2S          0.00247  -0.01245   0.01284  -0.00064  -0.00095
   3        3S          0.00115   0.00115  -0.00280   0.00168   0.00093
   4        4PX        -0.00018   0.00004  -0.00004   0.00018   0.00025
   5        4PY         0.00029   0.00003  -0.00002   0.00000   0.00000
   6        4PZ         0.00000   0.00000   0.00000   0.00000   0.00000
   7        5PX        -0.00001  -0.00009  -0.00041   0.00052   0.00042
   8        5PY         0.00075   0.00003  -0.00077   0.00053   0.00020
   9        5PZ         0.00000   0.00000   0.00000   0.00000   0.00000
  10        6XX        -0.00051   0.00144  -0.00144   0.00008   0.00011
  11        6YY        -0.00030   0.00160  -0.00140  -0.00015  -0.00015
  12        6ZZ        -0.00038   0.00182  -0.00180   0.00006   0.00012
  13        6XY        -0.00023   0.00006   0.00000  -0.00002   0.00002
  14        6XZ         0.00000   0.00000   0.00000   0.00000   0.00000
  15        6YZ         0.00000   0.00000   0.00000   0.00000   0.00000
  16 2   C  1S          0.00543  -0.04802   0.04876   0.54072   0.82317
  17        2S          0.00022  -0.00094   0.00092   0.00992   0.01488
  18        3S         -0.00068  -0.00035   0.00192  -0.00215  -0.00165
  19        4PX        -0.00009   0.00025  -0.00024  -0.00002  -0.00010
  20        4PY         0.00001   0.00001   0.00001   0.00012   0.00005
  21        4PZ         0.00000   0.00000   0.00000   0.00000   0.00000
  22        5PX         0.00008   0.00035  -0.00067   0.00047   0.00012
  23        5PY        -0.00044  -0.00009   0.00071  -0.00057  -0.00019
  24        5PZ         0.00000   0.00000   0.00000   0.00000   0.00000
  25        6XX         0.00009   0.00004  -0.00006  -0.00117  -0.00170
  26        6YY        -0.00003   0.00034  -0.00039  -0.00104  -0.00185
  27        6ZZ         0.00002   0.00015  -0.00018  -0.00139  -0.00217
  28        6XY        -0.00009   0.00001   0.00006   0.00006   0.00009
  29        6XZ         0.00000   0.00000   0.00000   0.00000   0.00000
  30        6YZ         0.00000   0.00000   0.00000   0.00000   0.00000
  31 3   C  1S         -0.00023   0.00009   0.00421   0.18604   0.03857
  32        2S          0.00001   0.00000   0.00025   0.00348   0.00072
  33        3S          0.00079  -0.00003  -0.00152   0.00194   0.00038
  34        4PX        -0.00002   0.00000  -0.00006  -0.00027  -0.00005
  35        4PY         0.00000   0.00008   0.00000   0.00008  -0.00039
  36        4PZ         0.00000   0.00000   0.00000   0.00000   0.00000
  37        5PX        -0.00030   0.00002   0.00084  -0.00108  -0.00021
  38        5PY         0.00000   0.00015   0.00000   0.00008  -0.00043
  39        5PZ         0.00000   0.00000   0.00000   0.00000   0.00000
  40        6XX        -0.00002   0.00000   0.00015  -0.00080  -0.00016
  41        6YY         0.00002   0.00000  -0.00001  -0.00043  -0.00009
  42        6ZZ        -0.00001   0.00000   0.00004  -0.00056  -0.00012
  43        6XY         0.00000  -0.00013   0.00000  -0.00005   0.00027
  44        6XZ         0.00000   0.00000   0.00000   0.00000   0.00000
  45        6YZ         0.00000   0.00000   0.00000   0.00000   0.00000
  46 4   C  1S          0.00546   0.05026   0.04734   0.81325  -0.55607
  47        2S          0.00022   0.00098   0.00089   0.01483  -0.01000
  48        3S         -0.00068   0.00042   0.00190  -0.00262   0.00072
  49        4PX        -0.00009  -0.00025  -0.00023  -0.00006   0.00008
  50        4PY        -0.00001   0.00001  -0.00001  -0.00013   0.00000
  51        4PZ         0.00000   0.00000   0.00000   0.00000   0.00000
  52        5PX         0.00008  -0.00037  -0.00066   0.00049   0.00007
  53        5PY         0.00044  -0.00012  -0.00071   0.00060   0.00003
  54        5PZ         0.00000   0.00000   0.00000   0.00000   0.00000
  55        6XX         0.00009  -0.00004  -0.00006  -0.00173   0.00112
  56        6YY        -0.00003  -0.00035  -0.00037  -0.00167   0.00132
  57        6ZZ         0.00002  -0.00016  -0.00018  -0.00211   0.00148
  58        6XY         0.00009   0.00001  -0.00006  -0.00009   0.00006
  59        6XZ         0.00000   0.00000   0.00000   0.00000   0.00000
  60        6YZ         0.00000   0.00000   0.00000   0.00000   0.00000
  61 5   C  1S          0.13013   0.71577   0.67753  -0.05712   0.03933
  62        2S          0.00247   0.01292   0.01236  -0.00097   0.00064
  63        3S          0.00115  -0.00125  -0.00276   0.00191  -0.00023
  64        4PX        -0.00018  -0.00004  -0.00004   0.00027  -0.00016
  65        4PY        -0.00029   0.00003   0.00002   0.00000   0.00000
  66        4PZ         0.00000   0.00000   0.00000   0.00000   0.00000
  67        5PX        -0.00001   0.00008  -0.00041   0.00065  -0.00019
  68        5PY        -0.00075   0.00006   0.00077  -0.00056  -0.00001
  69        5PZ         0.00000   0.00000   0.00000   0.00000   0.00000
  70        6XX        -0.00051  -0.00150  -0.00138   0.00012  -0.00007
  71        6YY        -0.00031  -0.00165  -0.00134  -0.00019   0.00008
  72        6ZZ        -0.00038  -0.00189  -0.00173   0.00010  -0.00009
  73        6XY         0.00023   0.00006  -0.00001   0.00001   0.00002
  74        6XZ         0.00000   0.00000   0.00000   0.00000   0.00000
  75        6YZ         0.00000   0.00000   0.00000   0.00000   0.00000
  76 6   C  1S          0.97929  -0.00344  -0.18470   0.00514   0.00099
  77        2S          0.01780  -0.00006  -0.00322   0.00022   0.00004
  78        3S         -0.00229   0.00005   0.00271  -0.00134  -0.00026
  79        4PX        -0.00010   0.00000   0.00025   0.00002   0.00000
  80        4PY         0.00000   0.00039  -0.00001   0.00001  -0.00003
  81        4PZ         0.00000   0.00000   0.00000   0.00000   0.00000
  82        5PX        -0.00033   0.00002   0.00110  -0.00070  -0.00014
  83        5PY         0.00000   0.00052  -0.00001   0.00001  -0.00007
  84        5PZ         0.00000   0.00000   0.00000   0.00000   0.00000
  85        6XX        -0.00219   0.00000   0.00003   0.00018   0.00004
  86        6YY        -0.00205   0.00001   0.00029   0.00004   0.00001
  87        6ZZ        -0.00256   0.00001   0.00042   0.00003   0.00001
  88        6XY         0.00000   0.00027  -0.00001   0.00002  -0.00008
  89        6XZ         0.00000   0.00000   0.00000   0.00000   0.00000
  90        6YZ         0.00000   0.00000   0.00000   0.00000   0.00000
  91 7   H  1S          0.00016  -0.00030   0.00018   0.00007   0.00007
  92        2S          0.00018  -0.00021   0.00006   0.00013   0.00006
  93        3PX         0.00000  -0.00003  -0.00001   0.00005   0.00007
  94        3PY         0.00010  -0.00003  -0.00001   0.00004   0.00005
  95        3PZ         0.00000   0.00000   0.00000   0.00000   0.00000
  96 8   H  1S         -0.00005  -0.00010   0.00014   0.00018   0.00037
  97        2S         -0.00007  -0.00007   0.00021   0.00003   0.00019
  98        3PX        -0.00002   0.00006  -0.00006   0.00000  -0.00005
  99        3PY        -0.00002  -0.00004   0.00005   0.00005   0.00007
 100        3PZ         0.00000   0.00000   0.00000   0.00000   0.00000
 101 9   H  1S          0.00001   0.00000  -0.00009   0.00028   0.00006
 102        2S          0.00006   0.00000  -0.00015   0.00028   0.00006
 103        3PX         0.00000   0.00000   0.00003  -0.00015  -0.00003
 104        3PY         0.00000   0.00004   0.00000   0.00001  -0.00006
 105        3PZ         0.00000   0.00000   0.00000   0.00000   0.00000
 106 10  H  1S         -0.00005   0.00010   0.00014   0.00031  -0.00028
 107        2S         -0.00007   0.00008   0.00021   0.00010  -0.00016
 108        3PX        -0.00002  -0.00006  -0.00006  -0.00002   0.00005
 109        3PY         0.00002  -0.00004  -0.00005  -0.00007   0.00005
 110        3PZ         0.00000   0.00000   0.00000   0.00000   0.00000
 111 11  H  1S          0.00016   0.00030   0.00017   0.00010  -0.00004
 112        2S          0.00018   0.00022   0.00005   0.00014   0.00000
 113        3PX         0.00000   0.00003  -0.00001   0.00007  -0.00004
 114        3PY        -0.00010  -0.00003   0.00001  -0.00005   0.00003
 115        3PZ         0.00000   0.00000   0.00000   0.00000   0.00000
 116 12  H  1S          0.00034   0.00000   0.00011  -0.00010  -0.00002
 117        2S          0.00026   0.00000   0.00016  -0.00011  -0.00002
 118        3PX         0.00001   0.00000   0.00013  -0.00005  -0.00001
 119        3PY         0.00000   0.00006   0.00000   0.00000  -0.00002
 120        3PZ         0.00000   0.00000   0.00000   0.00000   0.00000
                           6         7         8         9        10
                           O         O         O         O         O
     Eigenvalues --   -11.23288  -1.14774  -1.01110  -1.01090  -0.81832
   1 1   C  1S          0.00653  -0.09141   0.10442   0.06608   0.06511
   2        2S          0.00021   0.18345  -0.20795  -0.13108  -0.13330
   3        3S         -0.00138   0.09605  -0.11972  -0.07607  -0.11524
   4        4PX         0.00000   0.02893  -0.06955   0.07960  -0.11579
   5        4PY         0.00000   0.05847   0.00980  -0.06213   0.11169
   6        4PZ         0.00000  -0.00003  -0.00001   0.00005  -0.00006
   7        5PX        -0.00033   0.00404  -0.02816   0.02888  -0.04027
   8        5PY        -0.00060   0.01208  -0.00213  -0.02788   0.01900
   9        5PZ         0.00000   0.00000  -0.00001   0.00002  -0.00002
  10        6XX         0.00010   0.01010  -0.01760   0.00504  -0.00945
  11        6YY         0.00009   0.00658   0.00486  -0.01313   0.00784
  12        6ZZ         0.00002  -0.00541   0.00583   0.00377   0.00282
  13        6XY         0.00009  -0.00476   0.00156   0.01243  -0.00479
  14        6XZ         0.00000   0.00000   0.00000  -0.00001   0.00001
  15        6YZ         0.00000  -0.00001   0.00000   0.00001   0.00000
  16 2   C  1S         -0.13592  -0.08555   0.11053  -0.05778   0.02938
  17        2S         -0.00240   0.17216  -0.22023   0.11564  -0.06024
  18        3S          0.00222   0.08958  -0.12628   0.06531  -0.04948
  19        4PX         0.00017  -0.03545   0.06049   0.07813   0.16095
  20        4PY         0.00025   0.05369  -0.00213   0.06705   0.11533
  21        4PZ         0.00000   0.00000  -0.00003   0.00001  -0.00002
  22        5PX        -0.00024  -0.00826   0.02768   0.02823   0.04963
  23        5PY         0.00098   0.00957  -0.00553   0.02767   0.02807
  24        5PZ         0.00000   0.00000   0.00001  -0.00001   0.00000
  25        6XX         0.00002   0.01051  -0.01687  -0.00687  -0.01292
  26        6YY         0.00017   0.00569   0.00248   0.01432   0.01177
  27        6ZZ         0.00030  -0.00514   0.00641  -0.00327   0.00145
  28        6XY         0.00017   0.00362  -0.00353   0.01171   0.00600
  29        6XZ         0.00000   0.00000   0.00000   0.00000   0.00000
  30        6YZ         0.00000   0.00000   0.00000   0.00000   0.00000
  31 3   C  1S          0.97829  -0.08272   0.01139  -0.12456  -0.09769
  32        2S          0.01773   0.16673  -0.02275   0.24875   0.20111
  33        3S         -0.00314   0.08638  -0.01294   0.14155   0.16592
  34        4PX        -0.00018  -0.06371   0.00373  -0.04057   0.04687
  35        4PY         0.00000  -0.00008   0.11019   0.00987  -0.03278
  36        4PZ         0.00000  -0.00004  -0.00006  -0.00005   0.00002
  37        5PX         0.00092  -0.01235   0.00202  -0.02228  -0.00736
  38        5PY         0.00000   0.00000   0.04276   0.00389  -0.00919
  39        5PZ         0.00000  -0.00001  -0.00002  -0.00001   0.00000
  40        6XX        -0.00209   0.00432  -0.00001   0.00016  -0.00176
  41        6YY        -0.00194   0.01163  -0.00149   0.01649   0.00561
  42        6ZZ        -0.00255  -0.00500   0.00066  -0.00728  -0.00454
  43        6XY         0.00000   0.00001  -0.01805  -0.00163   0.00265
  44        6XZ         0.00000   0.00001   0.00001   0.00001   0.00000
  45        6YZ         0.00000  -0.00001  -0.00001  -0.00002   0.00000
  46 4   C  1S         -0.13337  -0.08551  -0.09834  -0.07670   0.05722
  47        2S         -0.00236   0.17207   0.19587   0.15334  -0.11744
  48        3S          0.00221   0.08957   0.11252   0.08697  -0.09727
  49        4PX         0.00016  -0.03553  -0.07378   0.06574   0.12755
  50        4PY        -0.00025  -0.05363   0.01007  -0.06619  -0.11239
  51        4PZ         0.00000   0.00003  -0.00002   0.00008   0.00012
  52        5PX        -0.00024  -0.00827  -0.03234   0.02269   0.04349
  53        5PY        -0.00097  -0.00958  -0.00042  -0.02822  -0.02239
  54        5PZ         0.00000   0.00000  -0.00001   0.00003   0.00003
  55        6XX         0.00002   0.01051   0.01784  -0.00369  -0.01203
  56        6YY         0.00016   0.00569  -0.00505   0.01364   0.00997
  57        6ZZ         0.00029  -0.00513  -0.00572  -0.00437   0.00270
  58        6XY        -0.00017  -0.00361  -0.00135  -0.01214  -0.00407
  59        6XZ         0.00000   0.00001   0.00001   0.00001  -0.00001
  60        6YZ         0.00000  -0.00001   0.00000  -0.00002  -0.00001
  61 5   C  1S          0.00642  -0.09139  -0.11470   0.04602   0.03960
  62        2S          0.00021   0.18341   0.22834  -0.09113  -0.08109
  63        3S         -0.00138   0.09601   0.13155  -0.05309  -0.07094
  64        4PX         0.00000   0.02896   0.05418   0.09081  -0.15550
  65        4PY         0.00000  -0.05844  -0.00155   0.06283  -0.11471
  66        4PZ         0.00000   0.00006   0.00003  -0.00003   0.00006
  67        5PX        -0.00033   0.00402   0.02249   0.03346  -0.04971
  68        5PY         0.00060  -0.01207  -0.00711   0.02705  -0.02517
  69        5PZ         0.00000   0.00002   0.00001  -0.00001   0.00000
  70        6XX         0.00010   0.01010   0.01642   0.00812  -0.01077
  71        6YY         0.00009   0.00657  -0.00242  -0.01380   0.00985
  72        6ZZ         0.00002  -0.00541  -0.00642   0.00265   0.00167
  73        6XY        -0.00009   0.00476   0.00377  -0.01194   0.00674
  74        6XZ         0.00000   0.00000   0.00000   0.00001  -0.00001
  75        6YZ         0.00000  -0.00001   0.00000   0.00001  -0.00001
  76 6   C  1S          0.00000  -0.09447  -0.01112   0.12227  -0.09380
  77        2S         -0.00005   0.18936   0.02208  -0.24290   0.19154
  78        3S          0.00120   0.09931   0.01282  -0.14086   0.16618
  79        4PX         0.00000   0.06545   0.00233  -0.02553  -0.06636
  80        4PY         0.00000  -0.00004   0.12196   0.01122   0.03348
  81        4PZ         0.00000  -0.00001  -0.00008   0.00001  -0.00004
  82        5PX         0.00055   0.01246   0.00162  -0.01748   0.00273
  83        5PY         0.00000  -0.00001   0.04605   0.00422   0.01006
  84        5PZ         0.00000   0.00000  -0.00003   0.00000   0.00000
  85        6XX        -0.00010   0.00373  -0.00008   0.00102  -0.00022
  86        6YY         0.00000   0.01318   0.00141  -0.01548   0.00225
  87        6ZZ        -0.00003  -0.00555  -0.00062   0.00677  -0.00409
  88        6XY         0.00000   0.00000   0.01861   0.00171   0.00230
  89        6XZ         0.00000   0.00000  -0.00001   0.00000   0.00000
  90        6YZ         0.00000  -0.00002   0.00000   0.00002  -0.00001
  91 7   H  1S         -0.00009   0.04714  -0.08768  -0.05686  -0.10402
  92        2S         -0.00011   0.00361  -0.01296  -0.00829  -0.02486
  93        3PX        -0.00001   0.00371  -0.00746  -0.00187  -0.00812
  94        3PY        -0.00005   0.00673  -0.00995  -0.00815  -0.00882
  95        3PZ         0.00000   0.00000   0.00000   0.00000   0.00000
  96 8   H  1S          0.00009   0.04155  -0.08800   0.04489  -0.04678
  97        2S          0.00015   0.00228  -0.01040   0.00538  -0.00855
  98        3PX        -0.00001  -0.00361   0.00756  -0.00121   0.00598
  99        3PY         0.00010   0.00599  -0.01047   0.00690  -0.00305
 100        3PZ         0.00000  -0.00001   0.00001  -0.00001   0.00001
 101 9   H  1S          0.00039   0.03897  -0.00873   0.09560   0.14108
 102        2S          0.00009   0.00177  -0.00092   0.01018   0.02354
 103        3PX        -0.00009  -0.00666   0.00130  -0.01422  -0.01735
 104        3PY         0.00000   0.00000   0.00267   0.00024  -0.00059
 105        3PZ         0.00000   0.00000   0.00000  -0.00001  -0.00001
 106 10  H  1S          0.00009   0.04152   0.07847   0.06001  -0.08808
 107        2S          0.00015   0.00228   0.00925   0.00718  -0.01636
 108        3PX        -0.00001  -0.00362  -0.00723  -0.00256   0.00806
 109        3PY        -0.00010  -0.00598  -0.00905  -0.00866   0.00755
 110        3PZ         0.00000   0.00000   0.00000   0.00000   0.00000
 111 11  H  1S         -0.00009   0.04711   0.09651  -0.03999  -0.06177
 112        2S         -0.00011   0.00360   0.01423  -0.00581  -0.01491
 113        3PX        -0.00001   0.00371   0.00768  -0.00048  -0.00638
 114        3PY         0.00005  -0.00672  -0.01126   0.00620   0.00432
 115        3PZ         0.00000   0.00001   0.00001  -0.00001  -0.00001
 116 12  H  1S          0.00005   0.05018   0.00973  -0.10698   0.15993
 117        2S          0.00010   0.00447   0.00161  -0.01756   0.04229
 118        3PX         0.00002   0.00804   0.00134  -0.01476   0.01750
 119        3PY         0.00000   0.00000   0.00293   0.00027   0.00061
 120        3PZ         0.00000   0.00000   0.00000   0.00000   0.00000
                          11        12        13        14        15
                           O         O         O         O         O
     Eigenvalues --    -0.81810  -0.70113  -0.63445  -0.61500  -0.58094
   1 1   C  1S          0.07076   0.00683   0.05287  -0.00276  -0.01821
   2        2S         -0.14476  -0.00765  -0.10314   0.00524   0.04247
   3        3S         -0.12262  -0.02337  -0.16689   0.01924   0.06402
   4        4PX         0.14540   0.09194   0.08567   0.23613   0.16111
   5        4PY        -0.02788   0.17571   0.10234  -0.14533   0.20831
   6        4PZ         0.00003  -0.00010  -0.00003   0.00005  -0.00014
   7        5PX         0.03672   0.03659   0.01882   0.08722   0.06229
   8        5PY        -0.02283   0.05630   0.00382  -0.04830   0.08660
   9        5PZ         0.00002  -0.00004   0.00001   0.00002  -0.00007
  10        6XX         0.00576  -0.00180   0.01642   0.00695   0.01163
  11        6YY        -0.00763   0.00480  -0.00845  -0.00705  -0.00989
  12        6ZZ         0.00319  -0.00067   0.00085  -0.00015  -0.00045
  13        6XY         0.00696   0.00301  -0.02116   0.00584  -0.00332
  14        6XZ         0.00000  -0.00001   0.00001  -0.00001   0.00000
  15        6YZ         0.00001   0.00000   0.00001   0.00000   0.00001
  16 2   C  1S         -0.09361   0.01117  -0.05769   0.00314  -0.01315
  17        2S          0.19236  -0.01670   0.11481  -0.00616   0.03184
  18        3S          0.16061  -0.04201   0.16691  -0.01939   0.03180
  19        4PX         0.08047  -0.09424   0.04136  -0.24019  -0.16684
  20        4PY        -0.00967   0.15045  -0.11620  -0.13420   0.17792
  21        4PZ         0.00008  -0.00014   0.00011  -0.00002  -0.00019
  22        5PX         0.01143  -0.02689  -0.00333  -0.07803  -0.04234
  23        5PY         0.01355   0.05403  -0.01892  -0.04872   0.08552
  24        5PZ         0.00000  -0.00004   0.00002  -0.00001  -0.00007
  25        6XX        -0.00070   0.00026  -0.01299   0.00822   0.01161
  26        6YY         0.00389   0.00279   0.00454  -0.00814  -0.00945
  27        6ZZ        -0.00424  -0.00046  -0.00072   0.00016  -0.00017
  28        6XY         0.00519  -0.00587  -0.02091  -0.00447  -0.00151
  29        6XZ         0.00000   0.00000   0.00001  -0.00001   0.00000
  30        6YZ         0.00000   0.00001  -0.00002  -0.00001   0.00002
  31 3   C  1S          0.01574   0.01288   0.06008  -0.00003   0.00010
  32        2S         -0.03242  -0.02036  -0.12060   0.00006  -0.00025
  33        3S         -0.02678  -0.04871  -0.16764   0.00016  -0.00028
  34        4PX        -0.00761  -0.16738  -0.11877   0.00026   0.00200
  35        4PY        -0.20386  -0.00003   0.00009   0.27524  -0.06257
  36        4PZ         0.00010  -0.00010  -0.00006  -0.00012   0.00001
  37        5PX         0.00119  -0.05684  -0.01603   0.00005   0.00087
  38        5PY        -0.05747  -0.00001   0.00007   0.08878   0.01324
  39        5PZ         0.00003  -0.00004  -0.00001  -0.00004  -0.00002
  40        6XX         0.00027   0.00700  -0.01478   0.00003   0.00000
  41        6YY        -0.00092  -0.00394   0.02344  -0.00001  -0.00004
  42        6ZZ         0.00073  -0.00039   0.00066   0.00000   0.00000
  43        6XY         0.01643   0.00000   0.00000  -0.01091   0.01848
  44        6XZ        -0.00001   0.00001  -0.00001   0.00000  -0.00001
  45        6YZ         0.00002   0.00000  -0.00001  -0.00002   0.00001
  46 4   C  1S          0.07974   0.01117  -0.05769  -0.00304   0.01328
  47        2S         -0.16393  -0.01671   0.11480   0.00597  -0.03219
  48        3S         -0.13713  -0.04204   0.16693   0.01919  -0.03209
  49        4PX        -0.12694  -0.09429   0.04183   0.24014   0.16770
  50        4PY         0.02695  -0.15035   0.11611  -0.13423   0.18052
  51        4PZ        -0.00009   0.00004  -0.00002   0.00022  -0.00005
  52        5PX        -0.02645  -0.02688  -0.00326   0.07809   0.04297
  53        5PY         0.02168  -0.05401   0.01897  -0.04874   0.08640
  54        5PZ        -0.00003   0.00002   0.00000   0.00008  -0.00004
  55        6XX         0.00471   0.00026  -0.01299  -0.00819  -0.01148
  56        6YY        -0.00740   0.00279   0.00454   0.00815   0.00930
  57        6ZZ         0.00357  -0.00045  -0.00072  -0.00016   0.00018
  58        6XY         0.00680   0.00586   0.02091  -0.00447  -0.00135
  59        6XZ        -0.00001  -0.00001  -0.00002   0.00000   0.00000
  60        6YZ         0.00001   0.00000   0.00001  -0.00001   0.00000
  61 5   C  1S         -0.08762   0.00685   0.05289   0.00272   0.01803
  62        2S          0.17928  -0.00769  -0.10318  -0.00516  -0.04209
  63        3S          0.15264  -0.02340  -0.16697  -0.01902  -0.06342
  64        4PX        -0.10189   0.09202   0.08534  -0.23619  -0.16180
  65        4PY         0.00848  -0.17556  -0.10230  -0.14551   0.20620
  66        4PZ        -0.00003   0.00016   0.00015   0.00008  -0.00025
  67        5PX        -0.02230   0.03664   0.01864  -0.08717  -0.06216
  68        5PY        -0.01576  -0.05625  -0.00387  -0.04837   0.08595
  69        5PZ         0.00001   0.00005   0.00003   0.00002  -0.00010
  70        6XX        -0.00250  -0.00181   0.01639  -0.00698  -0.01183
  71        6YY         0.00480   0.00481  -0.00842   0.00709   0.01011
  72        6ZZ        -0.00391  -0.00067   0.00085   0.00015   0.00045
  73        6XY         0.00512  -0.00301   0.02117   0.00582  -0.00315
  74        6XZ        -0.00001   0.00000  -0.00001  -0.00001   0.00000
  75        6YZ        -0.00001  -0.00001   0.00001  -0.00001   0.00000
  76 6   C  1S          0.01504   0.00426  -0.05038   0.00002  -0.00015
  77        2S         -0.03070  -0.00235   0.09719  -0.00003   0.00034
  78        3S         -0.02667  -0.01165   0.16710  -0.00001   0.00051
  79        4PX         0.01065   0.20890  -0.13776   0.00029   0.00230
  80        4PY         0.20816  -0.00011   0.00013   0.27951  -0.10447
  81        4PZ        -0.00014   0.00001   0.00003  -0.00021   0.00004
  82        5PX        -0.00044   0.07012  -0.01143   0.00010   0.00085
  83        5PY         0.06241  -0.00002   0.00001   0.10480  -0.01683
  84        5PZ        -0.00004   0.00000   0.00001  -0.00008   0.00000
  85        6XX         0.00004   0.00469   0.01935   0.00000  -0.00010
  86        6YY        -0.00036  -0.00175  -0.02702   0.00002   0.00010
  87        6ZZ         0.00065  -0.00082  -0.00090   0.00000   0.00000
  88        6XY         0.01429   0.00000  -0.00001   0.00995  -0.02168
  89        6XZ        -0.00001   0.00000   0.00000  -0.00001   0.00001
  90        6YZ        -0.00001   0.00000   0.00002  -0.00001   0.00000
  91 7   H  1S         -0.11760  -0.15742  -0.18805   0.01070  -0.20467
  92        2S         -0.02767  -0.04485  -0.08008   0.00426  -0.08504
  93        3PX        -0.00421  -0.00677  -0.00603   0.00495  -0.00442
  94        3PY        -0.01292  -0.01154  -0.01223  -0.00203  -0.01239
  95        3PZ         0.00001   0.00000   0.00001   0.00000   0.00000
  96 8   H  1S          0.13985  -0.14022   0.17779  -0.00750  -0.18043
  97        2S          0.02643  -0.02951   0.06162  -0.00263  -0.05695
  98        3PX        -0.00761   0.00641  -0.00785  -0.00414   0.00420
  99        3PY         0.01490  -0.01128   0.01192  -0.00302  -0.01221
 100        3PZ        -0.00002   0.00002  -0.00002   0.00000   0.00002
 101 9   H  1S         -0.02279  -0.13190  -0.17496   0.00026   0.00150
 102        2S         -0.00381  -0.02343  -0.05419   0.00009   0.00039
 103        3PX         0.00280   0.01272   0.01472  -0.00001  -0.00011
 104        3PY        -0.00366   0.00000   0.00000   0.00505  -0.00418
 105        3PZ         0.00000   0.00001   0.00001   0.00000   0.00000
 106 10  H  1S         -0.11829  -0.14018   0.17789   0.00745   0.18249
 107        2S         -0.02244  -0.02950   0.06164   0.00260   0.05762
 108        3PX         0.00536   0.00642  -0.00785   0.00414  -0.00432
 109        3PY         0.01320   0.01127  -0.01193  -0.00301  -0.01231
 110        3PZ         0.00000   0.00000   0.00000   0.00000   0.00000
 111 11  H  1S          0.14430  -0.15735  -0.18789  -0.01069   0.20361
 112        2S          0.03409  -0.04483  -0.08002  -0.00424   0.08464
 113        3PX         0.00655  -0.00677  -0.00604  -0.00496   0.00432
 114        3PY        -0.01503   0.01153   0.01222  -0.00203  -0.01237
 115        3PZ         0.00001  -0.00001  -0.00001   0.00000   0.00001
 116 12  H  1S         -0.02563  -0.16645   0.19458  -0.00025  -0.00190
 117        2S         -0.00678  -0.05452   0.09129  -0.00011  -0.00091
 118        3PX        -0.00280  -0.01354   0.01335  -0.00002  -0.00011
 119        3PY         0.00382   0.00000   0.00000   0.00549  -0.00512
 120        3PZ         0.00000   0.00000   0.00000   0.00000   0.00000
                          16        17        18        19        20
                           O         O         O         O         O
     Eigenvalues --    -0.58024  -0.49939  -0.48742  -0.48685  -0.33362
   1 1   C  1S         -0.00854  -0.00001  -0.00239  -0.00644   0.00001
   2        2S          0.01939   0.00002   0.01052   0.01626  -0.00002
   3        3S          0.02692   0.00008  -0.01029   0.02594   0.00006
   4        4PX        -0.01978   0.00011   0.00247   0.24186  -0.00007
   5        4PY         0.15016   0.00007   0.20577  -0.03125  -0.00010
   6        4PZ        -0.00004   0.22492  -0.00006  -0.00008  -0.28138
   7        5PX         0.01762   0.00005   0.00901   0.11204   0.00000
   8        5PY         0.04340   0.00008   0.07844  -0.01707  -0.00006
   9        5PZ         0.00000   0.13652  -0.00001  -0.00006  -0.23582
  10        6XX        -0.01215   0.00001   0.00564   0.01786   0.00000
  11        6YY         0.01269   0.00001  -0.00634  -0.01885   0.00000
  12        6ZZ        -0.00014  -0.00002   0.00003   0.00012   0.00000
  13        6XY        -0.01307   0.00001  -0.03042  -0.00171  -0.00002
  14        6XZ         0.00001   0.00638   0.00002  -0.00001  -0.01839
  15        6YZ        -0.00001   0.01432   0.00000   0.00001  -0.00152
  16 2   C  1S          0.00797   0.00003   0.00353   0.00347  -0.00004
  17        2S         -0.02021  -0.00006  -0.01287  -0.00367   0.00009
  18        3S         -0.02336  -0.00015  -0.00829  -0.02781   0.00007
  19        4PX         0.03624  -0.00018  -0.03235  -0.24423   0.00013
  20        4PY        -0.17565   0.00022  -0.24772   0.00545  -0.00019
  21        4PZ         0.00018   0.20525   0.00019  -0.00015  -0.27518
  22        5PX         0.03670  -0.00007  -0.01584  -0.08724   0.00013
  23        5PY        -0.06105   0.00009  -0.11156   0.01081  -0.00022
  24        5PZ         0.00007   0.11905   0.00009  -0.00008  -0.21232
  25        6XX         0.00904  -0.00001  -0.00285   0.02323   0.00000
  26        6YY        -0.01102   0.00000   0.00267  -0.02242   0.00001
  27        6ZZ         0.00025   0.00000   0.00002  -0.00008   0.00000
  28        6XY        -0.01167   0.00000  -0.02895   0.00878   0.00001
  29        6XZ         0.00001  -0.00925   0.00001   0.00000   0.01884
  30        6YZ         0.00000   0.01294  -0.00002   0.00002  -0.00274
  31 3   C  1S          0.01399  -0.00002  -0.00016  -0.00144   0.00000
  32        2S         -0.03518   0.00005  -0.00027  -0.00357   0.00000
  33        3S         -0.02760   0.00011   0.00160   0.01570   0.00007
  34        4PX         0.29063  -0.00014   0.02341   0.25137   0.00000
  35        4PY         0.00045   0.00005   0.26347  -0.02479   0.00005
  36        4PZ         0.00025   0.19586  -0.00008   0.00016  -0.00951
  37        5PX         0.11788  -0.00011   0.01039   0.11236  -0.00004
  38        5PY        -0.00010   0.00004   0.09121  -0.00860   0.00000
  39        5PZ         0.00011   0.11135  -0.00001   0.00007  -0.00723
  40        6XX         0.00187   0.00003   0.00271   0.02892   0.00000
  41        6YY        -0.00508   0.00000  -0.00283  -0.03041   0.00002
  42        6ZZ         0.00019  -0.00003   0.00002   0.00017  -0.00002
  43        6XY        -0.00015   0.00000  -0.02282   0.00216  -0.00002
  44        6XZ        -0.00001  -0.01591   0.00001   0.00002   0.00046
  45        6YZ         0.00000  -0.00002  -0.00002   0.00002   0.02903
  46 4   C  1S          0.00778   0.00002  -0.00283   0.00410   0.00001
  47        2S         -0.01974  -0.00004   0.01199  -0.00609  -0.00003
  48        3S         -0.02306  -0.00010   0.00299  -0.02906  -0.00009
  49        4PX         0.03341  -0.00017  -0.01376  -0.24576  -0.00015
  50        4PY         0.17268   0.00012  -0.24466   0.04111   0.00011
  51        4PZ        -0.00002   0.20519   0.00012  -0.00019   0.26515
  52        5PX         0.03596  -0.00008  -0.00065  -0.08855  -0.00010
  53        5PY         0.05979   0.00009  -0.11179   0.01042   0.00009
  54        5PZ         0.00001   0.11902   0.00006  -0.00008   0.20419
  55        6XX         0.00922   0.00000   0.00708   0.02225   0.00001
  56        6YY        -0.01119  -0.00002  -0.00675  -0.02152  -0.00001
  57        6ZZ         0.00025   0.00001  -0.00003  -0.00007  -0.00001
  58        6XY         0.01166  -0.00001  -0.03011  -0.00324  -0.00003
  59        6XZ         0.00000  -0.00927   0.00003   0.00002  -0.01988
  60        6YZ         0.00001  -0.01293  -0.00002   0.00001  -0.00158
  61 5   C  1S         -0.00883   0.00000   0.00118  -0.00673   0.00000
  62        2S          0.02005  -0.00001  -0.00739   0.01783  -0.00002
  63        3S          0.02805   0.00002   0.01483   0.02343   0.00003
  64        4PX        -0.01709  -0.00001   0.04254   0.23785  -0.00005
  65        4PY        -0.15270   0.00026   0.20826  -0.00725   0.00031
  66        4PZ         0.00018   0.22489  -0.00022   0.00002   0.28969
  67        5PX         0.01867  -0.00001   0.01196   0.11162  -0.00004
  68        5PY        -0.04462   0.00013   0.08043   0.00229   0.00022
  69        5PZ         0.00007   0.13650  -0.00009  -0.00001   0.24239
  70        6XX        -0.01196   0.00000  -0.00219   0.01856  -0.00002
  71        6YY         0.01254  -0.00003   0.00269  -0.01968   0.00000
  72        6ZZ        -0.00015   0.00003  -0.00001   0.00013   0.00001
  73        6XY         0.01307   0.00000  -0.02960   0.00734   0.00000
  74        6XZ        -0.00001   0.00640   0.00002   0.00000   0.01721
  75        6YZ        -0.00001  -0.01431  -0.00001   0.00002  -0.00250
  76 6   C  1S         -0.02307   0.00001   0.00064   0.00654   0.00000
  77        2S          0.05219  -0.00001  -0.00190  -0.01955   0.00000
  78        3S          0.08613  -0.00005  -0.00063  -0.00600  -0.00007
  79        4PX         0.28116  -0.00011  -0.01771  -0.18588   0.00001
  80        4PY         0.00043   0.00018  -0.24036   0.02250  -0.00006
  81        4PZ         0.00004   0.23527   0.00018  -0.00008   0.00889
  82        5PX         0.11171  -0.00008  -0.00695  -0.07278  -0.00003
  83        5PY        -0.00002   0.00011  -0.11436   0.01070  -0.00005
  84        5PZ         0.00002   0.14642   0.00009  -0.00004   0.00754
  85        6XX        -0.00927   0.00001   0.00261   0.02773  -0.00001
  86        6YY         0.01031   0.00000  -0.00245  -0.02592   0.00004
  87        6ZZ        -0.00055  -0.00001  -0.00001  -0.00011  -0.00004
  88        6XY         0.00015   0.00001  -0.01869   0.00173   0.00000
  89        6XZ         0.00000   0.01541   0.00001   0.00000   0.00029
  90        6YZ        -0.00001  -0.00001   0.00000   0.00003   0.03134
  91 7   H  1S         -0.09488   0.00000  -0.18689  -0.08748  -0.00001
  92        2S         -0.03909   0.00001  -0.10977  -0.05212   0.00001
  93        3PX        -0.00675   0.00000  -0.00674   0.00404   0.00000
  94        3PY        -0.00292   0.00000  -0.00574  -0.00681   0.00000
  95        3PZ         0.00000   0.00771   0.00000   0.00000  -0.01053
  96 8   H  1S          0.13098  -0.00010   0.18999  -0.13232  -0.00001
  97        2S          0.04203  -0.00006   0.08972  -0.06237  -0.00002
  98        3PX        -0.00793   0.00000  -0.00911  -0.00212   0.00001
  99        3PY         0.00615   0.00001   0.00613  -0.00915  -0.00001
 100        3PZ        -0.00001   0.00673  -0.00001   0.00001  -0.00998
 101 9   H  1S          0.21706   0.00001   0.02270   0.24330  -0.00001
 102        2S          0.05951   0.00002   0.00955   0.10228   0.00001
 103        3PX        -0.01610   0.00000  -0.00126  -0.01354   0.00000
 104        3PY         0.00003   0.00000   0.00825  -0.00078   0.00000
 105        3PZ        -0.00001   0.00627   0.00000  -0.00001  -0.00033
 106 10  H  1S          0.12788  -0.00003  -0.21146  -0.09437  -0.00004
 107        2S          0.04099  -0.00003  -0.09979  -0.04445  -0.00003
 108        3PX        -0.00786   0.00000   0.00858  -0.00378  -0.00001
 109        3PY        -0.00594   0.00000   0.00773   0.00784   0.00000
 110        3PZ         0.00000   0.00673   0.00000  -0.00001   0.00963
 111 11  H  1S         -0.09757   0.00003   0.16752  -0.12046   0.00005
 112        2S         -0.04017   0.00002   0.09826  -0.07152   0.00005
 113        3PX        -0.00680   0.00000   0.00739   0.00272   0.00000
 114        3PY         0.00310   0.00001  -0.00438   0.00775   0.00001
 115        3PZ         0.00000   0.00771   0.00000  -0.00001   0.01085
 116 12  H  1S         -0.22303   0.00007   0.01832   0.19328  -0.00002
 117        2S         -0.10502   0.00004   0.01199   0.12669  -0.00003
 118        3PX        -0.01323   0.00000   0.00075   0.00793   0.00000
 119        3PY         0.00003   0.00001  -0.00724   0.00068   0.00000
 120        3PZ         0.00000   0.00824   0.00001   0.00000   0.00035
                          21        22        23        24        25
                           O         V         V         V         V
     Eigenvalues --    -0.33288   0.13719   0.13791   0.16387   0.20983
   1 1   C  1S          0.00001   0.00004  -0.00003   0.03850   0.04997
   2        2S         -0.00001  -0.00013   0.00008  -0.01468  -0.03112
   3        3S         -0.00010   0.00023   0.00002  -0.77562  -1.15350
   4        4PX        -0.00002  -0.00005   0.00002   0.05438   0.07509
   5        4PY        -0.00008  -0.00010  -0.00011   0.09904   0.14615
   6        4PZ        -0.14973  -0.18616  -0.25286  -0.00008  -0.00007
   7        5PX        -0.00002   0.00013  -0.00030   0.04724   0.47149
   8        5PY        -0.00010   0.00037  -0.00035   0.29039   0.76674
   9        5PZ        -0.11850  -0.36008  -0.48154  -0.00019  -0.00032
  10        6XX         0.00001   0.00000   0.00000   0.00495   0.01298
  11        6YY        -0.00002   0.00003   0.00001   0.00913  -0.00099
  12        6ZZ         0.00002  -0.00003   0.00000   0.01872   0.01896
  13        6XY         0.00001  -0.00002   0.00001   0.00612  -0.01071
  14        6XZ         0.02079  -0.02418   0.02547   0.00000   0.00000
  15        6YZ        -0.01740   0.02119  -0.00240   0.00000   0.00001
  16 2   C  1S          0.00002  -0.00001   0.00005   0.02158   0.00975
  17        2S         -0.00005   0.00003  -0.00010  -0.02174   0.01301
  18        3S         -0.00003  -0.00041  -0.00009  -0.15513  -0.48426
  19        4PX        -0.00004   0.00004  -0.00014  -0.01364  -0.05188
  20        4PY         0.00012  -0.00010   0.00019   0.03485   0.07572
  21        4PZ         0.17093  -0.12541   0.28776   0.00003  -0.00007
  22        5PX        -0.00004   0.00013  -0.00047  -0.09694  -0.19945
  23        5PY         0.00011  -0.00059   0.00055   0.02879   0.06111
  24        5PZ         0.13916  -0.21988   0.51979   0.00004  -0.00026
  25        6XX        -0.00002  -0.00004   0.00001   0.00214   0.00114
  26        6YY         0.00002   0.00001   0.00001   0.00995   0.00327
  27        6ZZ         0.00000   0.00001   0.00000   0.00698   0.00969
  28        6XY        -0.00001   0.00000   0.00001  -0.01005   0.00085
  29        6XZ         0.01799   0.02855   0.01797   0.00000  -0.00001
  30        6YZ         0.01983   0.02233   0.00054  -0.00001   0.00001
  31 3   C  1S         -0.00002  -0.00001  -0.00002   0.02008   0.00000
  32        2S          0.00006  -0.00002   0.00006  -0.02285   0.00000
  33        3S          0.00003   0.00066  -0.00013  -0.14129   0.00029
  34        4PX        -0.00027  -0.00021  -0.00002  -0.01241  -0.00015
  35        4PY         0.00012   0.00014  -0.00007  -0.00003   0.02451
  36        4PZ         0.32557   0.31272  -0.01532  -0.00007  -0.00002
  37        5PX        -0.00018  -0.00068   0.00015   0.02226  -0.00049
  38        5PY         0.00012   0.00012  -0.00013  -0.00006  -0.11429
  39        5PZ         0.24824   0.54331  -0.02679  -0.00012   0.00003
  40        6XX         0.00002  -0.00001   0.00000   0.01321   0.00003
  41        6YY         0.00001   0.00000  -0.00003  -0.00617  -0.00001
  42        6ZZ        -0.00002   0.00000   0.00004   0.00596   0.00001
  43        6XY        -0.00001   0.00001   0.00002  -0.00001   0.00523
  44        6XZ        -0.01569   0.00861  -0.00043   0.00000   0.00000
  45        6YZ         0.00080  -0.00190  -0.03928   0.00000   0.00000
  46 4   C  1S          0.00000   0.00001  -0.00003   0.02157  -0.00964
  47        2S         -0.00001  -0.00002   0.00006  -0.02173  -0.01306
  48        3S          0.00004  -0.00049   0.00017  -0.15510   0.48126
  49        4PX        -0.00010   0.00010   0.00015  -0.01369   0.05167
  50        4PY         0.00012  -0.00007  -0.00015  -0.03484   0.07556
  51        4PZ         0.18609  -0.15267  -0.27437  -0.00002  -0.00001
  52        5PX        -0.00010   0.00037   0.00041  -0.09704   0.19921
  53        5PY         0.00008   0.00007  -0.00033  -0.02870   0.06085
  54        5PZ         0.15086  -0.26891  -0.49625  -0.00014   0.00015
  55        6XX        -0.00002  -0.00004   0.00001   0.00213  -0.00118
  56        6YY        -0.00002  -0.00003   0.00001   0.00995  -0.00325
  57        6ZZ         0.00004   0.00006  -0.00002   0.00698  -0.00964
  58        6XY         0.00003   0.00004  -0.00002   0.01006   0.00084
  59        6XZ         0.01686   0.02665  -0.02069  -0.00002   0.00001
  60        6YZ        -0.01993  -0.02216   0.00272   0.00001   0.00000
  61 5   C  1S          0.00000   0.00002   0.00001   0.03851  -0.04988
  62        2S          0.00001  -0.00007  -0.00004  -0.01469   0.03092
  63        3S         -0.00009   0.00036  -0.00011  -0.77556   1.15359
  64        4PX         0.00003   0.00002  -0.00009   0.05443  -0.07505
  65        4PY        -0.00012  -0.00014   0.00027  -0.09907   0.14610
  66        4PZ        -0.13307  -0.16046   0.26990   0.00016  -0.00012
  67        5PX         0.00000   0.00037   0.00009   0.04743  -0.47042
  68        5PY        -0.00006  -0.00060   0.00058  -0.29049   0.76486
  69        5PZ        -0.10452  -0.31115   0.51459   0.00042  -0.00073
  70        6XX         0.00000   0.00001   0.00001   0.00496  -0.01296
  71        6YY         0.00002  -0.00002  -0.00001   0.00913   0.00104
  72        6ZZ        -0.00002   0.00001  -0.00001   0.01872  -0.01897
  73        6XY         0.00002  -0.00002  -0.00001  -0.00612  -0.01068
  74        6XZ         0.02179  -0.02654  -0.02302   0.00000   0.00001
  75        6YZ         0.01727  -0.02131  -0.00034   0.00001  -0.00002
  76 6   C  1S          0.00002  -0.00002  -0.00002   0.05955  -0.00006
  77        2S         -0.00005   0.00006   0.00003  -0.03262   0.00009
  78        3S         -0.00001  -0.00035   0.00032  -1.10087   0.00025
  79        4PX        -0.00002  -0.00001  -0.00001   0.17585  -0.00014
  80        4PY        -0.00023   0.00023   0.00003  -0.00002  -0.00647
  81        4PZ        -0.31520   0.31286  -0.01517   0.00000  -0.00001
  82        5PX         0.00006  -0.00051  -0.00007   0.78538  -0.00192
  83        5PY        -0.00020   0.00055   0.00028  -0.00018  -0.24047
  84        5PZ        -0.26832   0.61727  -0.02996   0.00004   0.00015
  85        6XX         0.00000  -0.00001   0.00000   0.01079   0.00001
  86        6YY        -0.00001  -0.00002   0.00006   0.01307  -0.00005
  87        6ZZ         0.00000   0.00001  -0.00005   0.02514   0.00000
  88        6XY         0.00000   0.00000  -0.00001   0.00000   0.00459
  89        6XZ        -0.00997  -0.01352   0.00066  -0.00001   0.00000
  90        6YZ         0.00092   0.00193   0.03918   0.00002   0.00001
  91 7   H  1S          0.00002   0.00005   0.00000   0.02088  -0.00198
  92        2S          0.00001   0.00055  -0.00030   0.82611   1.60785
  93        3PX         0.00000   0.00000   0.00000   0.00523   0.00967
  94        3PY         0.00000  -0.00001  -0.00001   0.00756   0.02178
  95        3PZ        -0.00584  -0.01016  -0.01426  -0.00001  -0.00001
  96 8   H  1S          0.00004  -0.00004   0.00014   0.02564   0.00512
  97        2S          0.00001  -0.00013   0.00034   0.28252   0.45833
  98        3PX        -0.00001   0.00001   0.00000   0.00239  -0.00307
  99        3PY         0.00001   0.00000   0.00001  -0.00045   0.00640
 100        3PZ         0.00596  -0.00663   0.01452   0.00001   0.00000
 101 9   H  1S         -0.00005  -0.00002  -0.00002   0.02220   0.00006
 102        2S         -0.00003   0.00012  -0.00014   0.15307   0.00069
 103        3PX         0.00000  -0.00001   0.00000   0.00211   0.00000
 104        3PY         0.00000   0.00001   0.00000   0.00000   0.00517
 105        3PZ         0.01141   0.01521  -0.00075   0.00000   0.00000
 106 10  H  1S          0.00004   0.00002  -0.00007   0.02567  -0.00510
 107        2S          0.00003   0.00004  -0.00021   0.28254  -0.45639
 108        3PX        -0.00001   0.00000   0.00000   0.00239   0.00304
 109        3PY         0.00000  -0.00001   0.00000   0.00044   0.00638
 110        3PZ         0.00652  -0.00799  -0.01382   0.00000   0.00000
 111 11  H  1S         -0.00001   0.00003   0.00000   0.02088   0.00201
 112        2S         -0.00002   0.00035  -0.00002   0.82622  -1.60528
 113        3PX         0.00000   0.00000  -0.00001   0.00523  -0.00966
 114        3PY         0.00000  -0.00001   0.00001  -0.00756   0.02177
 115        3PZ        -0.00521  -0.00871   0.01519   0.00001  -0.00002
 116 12  H  1S          0.00004  -0.00006  -0.00002   0.01759   0.00001
 117        2S          0.00006  -0.00031  -0.00030   1.56049  -0.00222
 118        3PX         0.00000   0.00000   0.00000   0.01940  -0.00002
 119        3PY        -0.00001   0.00001   0.00000   0.00000  -0.00045
 120        3PZ        -0.01223   0.01828  -0.00089   0.00000   0.00000
                          26        27        28        29        30
                           V         V         V         V         V
     Eigenvalues --     0.21864   0.24699   0.26494   0.29493   0.35175
   1 1   C  1S         -0.03153   0.03210  -0.03379   0.00084   0.00000
   2        2S          0.07423  -0.07937   0.05129  -0.06592  -0.00005
   3        3S         -0.22425   0.31687   0.45608   1.24731  -0.00010
   4        4PX        -0.03592   0.06190  -0.00077  -0.01811  -0.00018
   5        4PY        -0.02925   0.06123  -0.01562   0.01643   0.00017
   6        4PZ        -0.00001   0.00002   0.00000   0.00007   0.22472
   7        5PX        -0.59289   0.67353  -0.12149   0.33322  -0.00043
   8        5PY        -0.66804   1.25974  -0.50199   0.93483   0.00033
   9        5PZ         0.00012  -0.00058   0.00050  -0.00058   0.72953
  10        6XX        -0.00912   0.02075  -0.01169   0.02821  -0.00001
  11        6YY        -0.01840   0.01642   0.00634   0.01332  -0.00005
  12        6ZZ         0.00525  -0.00726  -0.00217  -0.02092   0.00001
  13        6XY         0.00498  -0.02165   0.00862  -0.00139  -0.00001
  14        6XZ         0.00000   0.00002  -0.00001   0.00001  -0.01180
  15        6YZ         0.00002  -0.00002  -0.00001  -0.00002  -0.01220
  16 2   C  1S         -0.03369  -0.02613   0.06017  -0.04030  -0.00003
  17        2S          0.00093   0.07224  -0.06688   0.11092  -0.00005
  18        3S          1.22116  -0.40698  -1.17130  -0.43588   0.00027
  19        4PX         0.06952   0.03380  -0.04373   0.03925   0.00005
  20        4PY        -0.07307  -0.08006   0.13160  -0.03601  -0.00020
  21        4PZ         0.00007   0.00010  -0.00023   0.00007  -0.24450
  22        5PX        -0.00593   0.39050  -0.43223   0.88595  -0.00022
  23        5PY         0.00053  -1.00252   0.84843  -1.10152  -0.00052
  24        5PZ         0.00028   0.00077  -0.00128   0.00097  -0.75517
  25        6XX         0.01006  -0.02117   0.01565  -0.02366  -0.00006
  26        6YY        -0.00287  -0.01388  -0.00635  -0.01610  -0.00005
  27        6ZZ        -0.01939   0.00729   0.01305   0.01269   0.00001
  28        6XY         0.00034   0.00258   0.00723  -0.01536   0.00000
  29        6XZ         0.00002   0.00000  -0.00002   0.00002  -0.00443
  30        6YZ        -0.00001  -0.00001   0.00004   0.00000   0.01607
  31 3   C  1S         -0.01544  -0.04049   0.00003   0.07525  -0.00004
  32        2S          0.02777  -0.01061   0.00002  -0.15125  -0.00009
  33        3S         -0.09553   1.81579  -0.00205  -0.30307   0.00119
  34        4PX         0.09364   0.13910  -0.00013  -0.13654  -0.00012
  35        4PY         0.00001  -0.00005  -0.03549  -0.00013   0.00020
  36        4PZ         0.00012   0.00008   0.00002   0.00002   0.25495
  37        5PX         0.50121  -0.07792   0.00013  -1.82230  -0.00036
  38        5PY        -0.00016  -0.00052  -0.29109  -0.00093   0.00044
  39        5PZ         0.00039  -0.00029   0.00029  -0.00102   0.76793
  40        6XX        -0.01881   0.00651   0.00000   0.00769  -0.00005
  41        6YY        -0.00504   0.01082   0.00000   0.03387  -0.00004
  42        6ZZ        -0.00084  -0.02646   0.00002  -0.00503   0.00002
  43        6XY         0.00000  -0.00002  -0.00852   0.00001   0.00002
  44        6XZ        -0.00002   0.00003   0.00001   0.00002   0.01585
  45        6YZ         0.00000  -0.00002   0.00001  -0.00003   0.00001
  46 4   C  1S         -0.03374  -0.02625  -0.06012  -0.04031   0.00000
  47        2S          0.00094   0.07239   0.06679   0.11095  -0.00003
  48        3S          1.22260  -0.40490   1.17141  -0.43497   0.00003
  49        4PX         0.06967   0.03390   0.04380   0.03941   0.00002
  50        4PY         0.07319   0.08021   0.13144   0.03590  -0.00009
  51        4PZ        -0.00004  -0.00002   0.00004  -0.00005  -0.24444
  52        5PX        -0.00532   0.39223   0.43265   0.88754  -0.00026
  53        5PY        -0.00056   1.00324   0.84619   1.10012  -0.00043
  54        5PZ         0.00003  -0.00039   0.00001  -0.00040  -0.75486
  55        6XX         0.01004  -0.02122  -0.01562  -0.02368  -0.00002
  56        6YY        -0.00288  -0.01385   0.00637  -0.01610  -0.00004
  57        6ZZ        -0.01940   0.00727  -0.01306   0.01270   0.00003
  58        6XY        -0.00033  -0.00257   0.00724   0.01537  -0.00002
  59        6XZ         0.00002  -0.00001   0.00001  -0.00002  -0.00444
  60        6YZ        -0.00001   0.00001   0.00001   0.00002  -0.01606
  61 5   C  1S         -0.03165   0.03217   0.03374   0.00081   0.00002
  62        2S          0.07428  -0.07951  -0.05119  -0.06591   0.00001
  63        3S         -0.22083   0.31627  -0.45575   1.24843  -0.00096
  64        4PX        -0.03621   0.06188   0.00073  -0.01811  -0.00015
  65        4PY         0.02962  -0.06121  -0.01547  -0.01644   0.00018
  66        4PZ        -0.00005   0.00010  -0.00003   0.00010   0.22470
  67        5PX        -0.59455   0.67452   0.12110   0.33402  -0.00041
  68        5PY         0.66956  -1.25974  -0.49952  -0.93408   0.00096
  69        5PZ        -0.00086   0.00129   0.00018   0.00101   0.72943
  70        6XX        -0.00914   0.02077   0.01165   0.02821   0.00002
  71        6YY        -0.01840   0.01640  -0.00635   0.01331   0.00000
  72        6ZZ         0.00521  -0.00727   0.00218  -0.02092  -0.00002
  73        6XY        -0.00500   0.02167   0.00859   0.00139   0.00001
  74        6XZ        -0.00001   0.00000   0.00000   0.00002  -0.01180
  75        6YZ         0.00002  -0.00003   0.00001  -0.00004   0.01219
  76 6   C  1S          0.04868  -0.02985   0.00001   0.01398   0.00001
  77        2S         -0.06919   0.10664  -0.00006   0.04097   0.00002
  78        3S         -0.45445  -0.78985   0.00110  -1.46297  -0.00001
  79        4PX         0.13379  -0.00357   0.00004  -0.01894   0.00005
  80        4PY        -0.00004   0.00009   0.03437  -0.00001  -0.00010
  81        4PZ         0.00008  -0.00007   0.00001  -0.00007  -0.21541
  82        5PX         1.54750  -1.22141   0.00104  -0.90891   0.00048
  83        5PY        -0.00082   0.00075   0.15637   0.00030  -0.00015
  84        5PZ         0.00036  -0.00018  -0.00002  -0.00007  -0.71683
  85        6XX        -0.01077  -0.01175   0.00001  -0.01816  -0.00002
  86        6YY         0.03973  -0.02972   0.00001  -0.02392   0.00006
  87        6ZZ         0.00537   0.01787  -0.00001   0.02099  -0.00001
  88        6XY         0.00000  -0.00002  -0.01402   0.00001   0.00001
  89        6XZ        -0.00002   0.00002   0.00001   0.00003   0.01651
  90        6YZ        -0.00003   0.00003  -0.00001   0.00003  -0.00001
  91 7   H  1S         -0.02659   0.00891   0.00648   0.02893  -0.00006
  92        2S         -0.92756   1.45700  -0.74479   0.53752  -0.00022
  93        3PX        -0.00198   0.00785  -0.00187  -0.01023   0.00000
  94        3PY         0.00025   0.00486  -0.01031  -0.00603   0.00002
  95        3PZ         0.00000   0.00000   0.00001   0.00001   0.02039
  96 8   H  1S         -0.00709  -0.03763   0.00761  -0.02422  -0.00021
  97        2S         -0.65870  -1.07812   1.65741  -1.37260   0.00046
  98        3PX         0.01078  -0.00164  -0.00675   0.00456  -0.00001
  99        3PY        -0.00952   0.00083   0.01887   0.00114   0.00001
 100        3PZ         0.00000   0.00000  -0.00002   0.00001  -0.01946
 101 9   H  1S         -0.03485  -0.00159   0.00002   0.04152  -0.00003
 102        2S         -0.63532  -0.85449   0.00083   2.24453  -0.00038
 103        3PX        -0.00173   0.02047  -0.00002  -0.00935  -0.00001
 104        3PY         0.00000   0.00000  -0.00459   0.00000   0.00001
 105        3PZ         0.00000   0.00001   0.00000   0.00000   0.01898
 106 10  H  1S         -0.00707  -0.03765  -0.00759  -0.02420  -0.00012
 107        2S         -0.65984  -1.08063  -1.65561  -1.37254   0.00045
 108        3PX         0.01079  -0.00164   0.00676   0.00456  -0.00001
 109        3PY         0.00953  -0.00080   0.01887  -0.00114  -0.00002
 110        3PZ        -0.00001   0.00000   0.00000   0.00000  -0.01946
 111 11  H  1S         -0.02659   0.00889  -0.00648   0.02898  -0.00007
 112        2S         -0.93167   1.45764   0.74199   0.53686  -0.00021
 113        3PX        -0.00201   0.00785   0.00186  -0.01024   0.00000
 114        3PY        -0.00019  -0.00488  -0.01030   0.00603   0.00001
 115        3PZ         0.00000   0.00001   0.00000   0.00000   0.02039
 116 12  H  1S         -0.01155  -0.02699   0.00004  -0.02990  -0.00002
 117        2S          1.93609  -1.01302   0.00080  -0.38347   0.00035
 118        3PX         0.02345   0.00309  -0.00001   0.01224   0.00001
 119        3PY         0.00000   0.00001   0.00892  -0.00001  -0.00001
 120        3PZ         0.00001  -0.00001   0.00000  -0.00001  -0.02084
                          31        32        33        34        35
                           V         V         V         V         V
     Eigenvalues --     0.43347   0.43515   0.46989   0.47011   0.58128
   1 1   C  1S          0.07035   0.03683   0.02011   0.01901   0.02819
   2        2S         -0.05806  -0.03130  -0.03009  -0.03101   0.06403
   3        3S         -2.79077  -1.08916  -0.84621  -1.61966  -0.24694
   4        4PX        -0.03330   0.00286  -0.17470  -0.00892  -0.01568
   5        4PY        -0.15003  -0.07896   0.04976  -0.08456   0.03791
   6        4PZ         0.00005   0.00005  -0.00007   0.00005   0.00008
   7        5PX        -0.95614   0.90429  -1.98502   0.68370  -0.18032
   8        5PY        -1.19669  -1.42949   0.69725  -0.37814   0.10495
   9        5PZ         0.00076   0.00076  -0.00060   0.00027   0.00008
  10        6XX        -0.02542  -0.02057  -0.00133   0.00044   0.03526
  11        6YY        -0.03322   0.00358  -0.02285  -0.04409   0.13731
  12        6ZZ         0.01882   0.00672   0.00483   0.00999  -0.05001
  13        6XY         0.01110   0.00928  -0.00900  -0.05309   0.10571
  14        6XZ        -0.00002   0.00002   0.00000   0.00003  -0.00009
  15        6YZ         0.00001   0.00003   0.00002   0.00005  -0.00011
  16 2   C  1S         -0.05450   0.03574  -0.02456   0.03949   0.01879
  17        2S          0.03784  -0.02119   0.02504  -0.04627   0.05431
  18        3S          1.79796  -1.54668   1.51130  -1.94935   0.03432
  19        4PX        -0.10147   0.07649  -0.14872  -0.06430  -0.03259
  20        4PY         0.08262  -0.05802  -0.00398  -0.15168  -0.00537
  21        4PZ        -0.00012   0.00010  -0.00001   0.00014  -0.00021
  22        5PX        -1.36590   0.12224  -1.54084  -0.98667  -0.21663
  23        5PY         0.83508  -0.96273  -0.75934  -1.24335  -0.06956
  24        5PZ        -0.00058   0.00038   0.00063  -0.00005  -0.00005
  25        6XX         0.02730  -0.02735  -0.01061  -0.01303   0.02407
  26        6YY         0.01070  -0.00594   0.03461  -0.02860   0.13087
  27        6ZZ        -0.01487   0.01184  -0.00642   0.01018  -0.04726
  28        6XY         0.02030   0.00083  -0.02549   0.03446  -0.10154
  29        6XZ        -0.00001  -0.00004   0.00000  -0.00004   0.00012
  30        6YZ        -0.00001   0.00002  -0.00008   0.00005  -0.00019
  31 3   C  1S          0.00052  -0.05618  -0.05015  -0.01967   0.01362
  32        2S         -0.00026   0.03281   0.04945   0.01931   0.05092
  33        3S         -0.01811   1.95144   2.53426   0.99646   0.18963
  34        4PX         0.00135  -0.14405  -0.12995  -0.05088  -0.00655
  35        4PY        -0.01632   0.00040   0.07288  -0.18617  -0.00078
  36        4PZ         0.00001  -0.00013  -0.00021   0.00004   0.00014
  37        5PX         0.01757  -1.64444  -0.63437  -0.25231  -0.07926
  38        5PY         0.47914   0.00987   0.80882  -2.07978   0.00151
  39        5PZ        -0.00016  -0.00127  -0.00167   0.00066  -0.00004
  40        6XX         0.00009   0.00177   0.05603   0.02191   0.17540
  41        6YY        -0.00055   0.04417  -0.01399  -0.00524  -0.02868
  42        6ZZ         0.00019  -0.01800  -0.01148  -0.00458  -0.04590
  43        6XY         0.00942   0.00016   0.00550  -0.01402   0.00016
  44        6XZ         0.00001  -0.00001   0.00005   0.00002   0.00017
  45        6YZ         0.00000  -0.00003   0.00001  -0.00003   0.00000
  46 4   C  1S          0.05371   0.03713   0.00845  -0.04560   0.01889
  47        2S         -0.03738  -0.02224  -0.01286   0.05102   0.05419
  48        3S         -1.76266  -1.59446  -0.19379   2.45287   0.03338
  49        4PX         0.09924   0.07852  -0.15334  -0.05284  -0.03411
  50        4PY         0.08154   0.06048   0.10560  -0.10903   0.00647
  51        4PZ         0.00000   0.00004  -0.00005  -0.00001  -0.00010
  52        5PX         1.35926   0.15015  -1.80564  -0.31978  -0.21331
  53        5PY         0.81693   0.98348   1.39523  -0.39760   0.06809
  54        5PZ        -0.00015  -0.00043  -0.00128   0.00026  -0.00027
  55        6XX        -0.02676  -0.02796  -0.01640   0.00242   0.02444
  56        6YY        -0.01044  -0.00634   0.00622   0.04439   0.13065
  57        6ZZ         0.01459   0.01220   0.00204  -0.01180  -0.04730
  58        6XY         0.02035  -0.00064  -0.00468   0.04268   0.10166
  59        6XZ        -0.00003  -0.00004  -0.00001  -0.00003  -0.00001
  60        6YZ         0.00004  -0.00001   0.00001   0.00000  -0.00007
  61 5   C  1S         -0.07107   0.03534   0.02780  -0.00015   0.02811
  62        2S          0.05864  -0.03014  -0.04315   0.00233   0.06410
  63        3S          2.81044  -1.03169  -1.72571   0.60779  -0.24687
  64        4PX         0.03269   0.00379  -0.13458  -0.11167  -0.01363
  65        4PY        -0.15182   0.07618   0.02080  -0.09560  -0.03688
  66        4PZ         0.00023  -0.00009  -0.00011   0.00006   0.00008
  67        5PX         0.93320   0.93018  -1.00396  -1.84479  -0.18220
  68        5PY        -1.22808   1.40478  -0.25745  -0.74159  -0.10630
  69        5PZ         0.00163  -0.00108  -0.00055   0.00035   0.00021
  70        6XX         0.02590  -0.01999  -0.00079  -0.00141   0.03533
  71        6YY         0.03301   0.00417  -0.04672   0.01691   0.13707
  72        6ZZ        -0.01895   0.00632   0.01039  -0.00399  -0.04995
  73        6XY         0.01137  -0.00879   0.04258  -0.03310  -0.10584
  74        6XZ         0.00001   0.00002  -0.00004   0.00003   0.00009
  75        6YZ        -0.00005  -0.00001   0.00006  -0.00003  -0.00020
  76 6   C  1S          0.00094  -0.08570   0.00650   0.00231   0.03199
  77        2S         -0.00091   0.07994  -0.02237  -0.00860   0.07078
  78        3S         -0.03586   3.28255  -1.20088  -0.45748  -0.36093
  79        4PX        -0.00195   0.16814  -0.06055  -0.02332   0.03357
  80        4PY        -0.02153   0.00026   0.06923  -0.17768  -0.00111
  81        4PZ         0.00000  -0.00001   0.00000   0.00012   0.00008
  82        5PX        -0.01801   1.72836   0.18942   0.07899  -0.00749
  83        5PY        -1.80907  -0.01596   0.78214  -1.99996   0.00234
  84        5PZ         0.00110  -0.00025  -0.00011   0.00146  -0.00023
  85        6XX        -0.00041   0.02857  -0.07616  -0.02960   0.19686
  86        6YY        -0.00035   0.03885   0.03131   0.01234  -0.01506
  87        6ZZ         0.00021  -0.02008   0.00980   0.00374  -0.05131
  88        6XY         0.01034   0.00008  -0.00089   0.00233  -0.00011
  89        6XZ        -0.00002   0.00002  -0.00001   0.00000   0.00004
  90        6YZ         0.00002  -0.00005  -0.00003  -0.00001  -0.00004
  91 7   H  1S         -0.05510   0.02857  -0.05804  -0.20312   0.37191
  92        2S         -0.83046  -0.41642  -0.17189   0.12902  -0.27133
  93        3PX        -0.00677   0.01675  -0.00111   0.02605  -0.04418
[...]
 120        3PZ         0.00000   0.00000   0.00000   0.00000   0.00000
                         101       102       103       104       105
 101 9   H  1S          0.37200
 102        2S          0.07540   0.03651
 103        3PX         0.00000   0.00000   0.00276
 104        3PY         0.00000   0.00000   0.00000   0.00027
 105        3PZ         0.00000   0.00000   0.00000   0.00000   0.00034
 106 10  H  1S         -0.00015  -0.00178   0.00000  -0.00002   0.00000
 107        2S         -0.00189  -0.00305  -0.00005  -0.00010   0.00000
 108        3PX        -0.00001  -0.00002   0.00000   0.00000   0.00000
 109        3PY        -0.00001  -0.00011   0.00000   0.00000   0.00000
 110        3PZ         0.00000   0.00000   0.00000   0.00000   0.00000
 111 11  H  1S          0.00000  -0.00001   0.00000   0.00000   0.00000
 112        2S         -0.00002  -0.00013   0.00000   0.00000   0.00000
 113        3PX         0.00000   0.00000   0.00000   0.00000   0.00000
 114        3PY         0.00000   0.00000   0.00000   0.00000   0.00000
 115        3PZ         0.00000   0.00000   0.00000   0.00000   0.00000
 116 12  H  1S          0.00000   0.00000   0.00000   0.00000   0.00000
 117        2S          0.00000   0.00004   0.00000   0.00000   0.00000
 118        3PX         0.00000   0.00000   0.00000   0.00000   0.00000
 119        3PY         0.00000   0.00000   0.00000   0.00000   0.00000
 120        3PZ         0.00000   0.00000   0.00000   0.00000   0.00000
                         106       107       108       109       110
 106 10  H  1S          0.37572
 107        2S          0.08427   0.04505
 108        3PX         0.00000   0.00000   0.00091
 109        3PY         0.00000   0.00000   0.00000   0.00202
 110        3PZ         0.00000   0.00000   0.00000   0.00000   0.00036
 111 11  H  1S         -0.00015  -0.00190  -0.00002   0.00000   0.00000
 112        2S         -0.00211  -0.00383  -0.00018   0.00000   0.00000
 113        3PX        -0.00002  -0.00014   0.00000   0.00000   0.00000
 114        3PY         0.00000   0.00000   0.00000   0.00000   0.00000
 115        3PZ         0.00000   0.00000   0.00000   0.00000   0.00000
 116 12  H  1S          0.00000  -0.00001   0.00000   0.00000   0.00000
 117        2S         -0.00002  -0.00016   0.00000   0.00000   0.00000
 118        3PX         0.00000   0.00000   0.00000   0.00000   0.00000
 119        3PY         0.00000   0.00000   0.00000   0.00000   0.00000
 120        3PZ         0.00000   0.00000   0.00000   0.00000   0.00000
                         111       112       113       114       115
 111 11  H  1S          0.38300
 112        2S          0.10407   0.06722
 113        3PX         0.00000   0.00000   0.00078
 114        3PY         0.00000   0.00000   0.00000   0.00197
 115        3PZ         0.00000   0.00000   0.00000   0.00000   0.00041
 116 12  H  1S         -0.00015  -0.00214  -0.00001  -0.00001   0.00000
 117        2S         -0.00224  -0.00481  -0.00005  -0.00014   0.00000
 118        3PX         0.00000  -0.00004   0.00000   0.00000   0.00000
 119        3PY        -0.00001  -0.00012   0.00000   0.00000   0.00000
 120        3PZ         0.00000   0.00000   0.00000   0.00000   0.00000
                         116       117       118       119       120
 116 12  H  1S          0.38660
 117        2S          0.11509   0.08139
 118        3PX         0.00000   0.00000   0.00240
 119        3PY         0.00000   0.00000   0.00000   0.00027
 120        3PZ         0.00000   0.00000   0.00000   0.00000   0.00044
     Gross orbital populations:
                           1
   1 1   C  1S          1.99722
   2        2S          0.66614
   3        3S          0.42532
   4        4PX         0.74695
   5        4PY         0.71594
   6        4PZ         0.53671
   7        5PX         0.20842
   8        5PY         0.18656
   9        5PZ         0.45890
  10        6XX         0.03125
  11        6YY         0.02212
  12        6ZZ        -0.01187
  13        6XY         0.03034
  14        6XZ         0.01311
  15        6YZ         0.00786
  16 2   C  1S          1.99723
  17        2S          0.66938
  18        3S          0.43214
  19        4PX         0.74286
  20        4PY         0.73409
  21        4PZ         0.51967
  22        5PX         0.18399
  23        5PY         0.21906
  24        5PZ         0.43219
  25        6XX         0.03161
  26        6YY         0.02343
  27        6ZZ        -0.01192
  28        6XY         0.02892
  29        6XZ         0.01246
  30        6YZ         0.00803
  31 3   C  1S          1.99724
  32        2S          0.67116
  33        3S          0.43575
  34        4PX         0.73187
  35        4PY         0.75193
  36        4PZ         0.51091
  37        5PX         0.22062
  38        5PY         0.18500
  39        5PZ         0.41905
  40        6XX         0.02127
  41        6YY         0.03847
  42        6ZZ        -0.01195
  43        6XY         0.02431
  44        6XZ         0.00624
  45        6YZ         0.01404
  46 4   C  1S          1.99723
  47        2S          0.66939
  48        3S          0.43234
  49        4PX         0.74295
  50        4PY         0.73390
  51        4PZ         0.51955
  52        5PX         0.18388
  53        5PY         0.21930
  54        5PZ         0.43217
  55        6XX         0.03160
  56        6YY         0.02341
  57        6ZZ        -0.01193
  58        6XY         0.02894
  59        6XZ         0.01247
  60        6YZ         0.00801
  61 5   C  1S          1.99722
  62        2S          0.66613
  63        3S          0.42532
  64        4PX         0.74701
  65        4PY         0.71580
  66        4PZ         0.53678
  67        5PX         0.20829
  68        5PY         0.18670
  69        5PZ         0.45896
  70        6XX         0.03126
  71        6YY         0.02210
  72        6ZZ        -0.01187
  73        6XY         0.03035
  74        6XZ         0.01311
  75        6YZ         0.00785
  76 6   C  1S          1.99722
  77        2S          0.66463
  78        3S          0.42184
  79        4PX         0.69727
  80        4PY         0.75840
  81        4PZ         0.54534
  82        5PX         0.18890
  83        5PY         0.20014
  84        5PZ         0.47266
  85        6XX         0.02138
  86        6YY         0.03903
  87        6ZZ        -0.01183
  88        6XY         0.02313
  89        6XZ         0.00486
  90        6YZ         0.01638
  91 7   H  1S          0.75836
  92        2S          0.20681
  93        3PX         0.00780
  94        3PY         0.01720
  95        3PZ         0.00571
  96 8   H  1S          0.74688
  97        2S          0.16718
  98        3PX         0.00856
  99        3PY         0.01775
 100        3PZ         0.00517
 101 9   H  1S          0.74097
 102        2S          0.14946
 103        3PX         0.02355
 104        3PY         0.00343
 105        3PZ         0.00493
 106 10  H  1S          0.74684
 107        2S          0.16715
 108        3PX         0.00857
 109        3PY         0.01774
 110        3PZ         0.00517
 111 11  H  1S          0.75829
 112        2S          0.20686
 113        3PX         0.00780
 114        3PY         0.01719
 115        3PZ         0.00571
 116 12  H  1S          0.76394
 117        2S          0.22904
 118        3PX         0.02074
 119        3PY         0.00362
 120        3PZ         0.00600
          Condensed to atoms (all electrons):
               1          2          3          4          5          6
     1  C    4.729935   0.547573  -0.051768  -0.035332  -0.048756   0.543381
     2  C    0.547573   4.687110   0.554877  -0.052599  -0.035317  -0.049906
     3  C   -0.051768   0.554877   4.665772   0.554492  -0.051778  -0.035389
     4  C   -0.035332  -0.052599   0.554492   4.687312   0.547850  -0.049896
     5  C   -0.048756  -0.035317  -0.051778   0.547850   4.730056   0.543038
     6  C    0.543381  -0.049906  -0.035389  -0.049896   0.543038   4.751485
     7  H    0.419596  -0.033608   0.006176  -0.000552   0.006297  -0.045178
     8  H   -0.037924   0.423577  -0.028048   0.005687  -0.000411   0.005802
     9  H    0.005501  -0.030198   0.424096  -0.030211   0.005500  -0.000354
    10  H   -0.000410   0.005689  -0.028040   0.423584  -0.037912   0.005793
    11  H    0.006299  -0.000553   0.006170  -0.033623   0.419578  -0.045170
    12  H   -0.043123   0.006489  -0.000640   0.006489  -0.043121   0.415746
               7          8          9         10         11         12
     1  C    0.419596  -0.037924   0.005501  -0.000410   0.006299  -0.043123
     2  C   -0.033608   0.423577  -0.030198   0.005689  -0.000553   0.006489
     3  C    0.006176  -0.028048   0.424096  -0.028040   0.006170  -0.000640
     4  C   -0.000552   0.005687  -0.030211   0.423584  -0.033623   0.006489
     5  C    0.006297  -0.000411   0.005500  -0.037912   0.419578  -0.043121
     6  C   -0.045178   0.005802  -0.000354   0.005793  -0.045170   0.415746
     7  H    0.661535  -0.008351  -0.000159   0.000037  -0.000199  -0.009717
     8  H   -0.008351   0.592700  -0.007196  -0.000147   0.000037  -0.000185
     9  H   -0.000159  -0.007196   0.562671  -0.007189  -0.000159   0.000037
    10  H    0.000037  -0.000147  -0.007189   0.592589  -0.008341  -0.000185
    11  H   -0.000199   0.000037  -0.000159  -0.008341   0.661517  -0.009718
    12  H   -0.009717  -0.000185   0.000037  -0.000185  -0.009718   0.701261
 Mulliken charges:
               1
     1  C   -0.034972
     2  C   -0.023134
     3  C   -0.015920
     4  C   -0.023201
     5  C   -0.035024
     6  C   -0.039352
     7  H    0.004123
     8  H    0.054460
     9  H    0.077661
    10  H    0.054533
    11  H    0.004161
    12  H   -0.023333
 Sum of Mulliken charges =   0.00000
 Mulliken charges with hydrogens summed into heavy atoms:
               1
     1  C   -0.030850
     2  C    0.031326
     3  C    0.061740
     4  C    0.031331
     5  C   -0.030862
     6  C   -0.062686
 Electronic spatial extent (au):  <R**2>=            776.2789
 Charge=              0.0000 electrons
 Dipole moment (field-independent basis, Debye):
    X=              1.8601    Y=             -0.0002    Z=              0.0011  Tot=              1.8601
 Quadrupole moment (field-independent basis, Debye-Ang):
   XX=            -31.7069   YY=            -31.8204   ZZ=            -40.4942
   XY=              2.6975   XZ=              0.0023   YZ=             -0.0044
 Traceless Quadrupole moment (field-independent basis, Debye-Ang):
   XX=              2.9669   YY=              2.8535   ZZ=             -5.8203
   XY=              2.6975   XZ=              0.0023   YZ=             -0.0044
 Octapole moment (field-independent basis, Debye-Ang**2):
  XXX=              5.7910  YYY=           -138.3619  ZZZ=              0.1252  XYY=              5.8348
  XXY=            -45.9472  XXZ=              0.0398  XZZ=             -0.7813  YZZ=            -58.6906
  YYZ=              0.0199  XYZ=              0.0025
 Hexadecapole moment (field-independent basis, Debye-Ang**3):
 XXXX=           -271.0364 YYYY=           -672.7415 ZZZZ=            -46.4643 XXXY=              8.4012
 XXXZ=             -0.0169 YYYX=             14.0459 YYYZ=              0.1629 ZZZX=             -0.0333
 ZZZY=              0.2698 XXYY=           -156.9377 XXZZ=            -63.6897 YYZZ=           -148.7226
 XXYZ=              0.0730 YYXZ=              0.0003 ZZXY=             -1.1307
 N-N= 2.029918701540D+02 E-N=-9.424950878862D+02  KE= 2.300762405864D+02
 Orbital energies and kinetic energies (alpha):
                                 1                 2
   1         O               -11.250386         16.006292
   2         O               -11.245935         16.008691
   3         O               -11.245763         16.013497
   4         O               -11.237393         16.007863
   5         O               -11.237222         16.010751
   6         O               -11.232876         16.014422
   7         O                -1.147744          1.441180
   8         O                -1.011096          1.559864
   9         O                -1.010898          1.559265
  10         O                -0.818318          1.429204
  11         O                -0.818103          1.430390
  12         O                -0.701126          0.905809
  13         O                -0.634446          1.242644
  14         O                -0.614996          1.447830
  15         O                -0.580937          1.159784
  16         O                -0.580244          1.158851
  17         O                -0.499388          0.877093
  18         O                -0.487419          1.350423
  19         O                -0.486850          1.350772
  20         O                -0.333621          1.031897
  21         O                -0.332882          1.031599
  22         V                 0.137192          1.145853
  23         V                 0.137907          1.145971
  24         V                 0.163867          0.614586
  25         V                 0.209832          0.597551
  26         V                 0.218645          0.625545
  27         V                 0.246989          0.624896
  28         V                 0.264937          0.673308
  29         V                 0.294933          0.689457
  30         V                 0.351753          1.316662
  31         V                 0.433470          1.168040
  32         V                 0.435149          1.165839
  33         V                 0.469892          1.218313
  34         V                 0.470114          1.216760
  35         V                 0.581285          1.337383
  36         V                 0.585542          1.297741
  37         V                 0.660703          1.261996
  38         V                 0.665109          2.360501
  39         V                 0.678674          1.840305
  40         V                 0.709528          1.793230
  41         V                 0.710703          1.794636
  42         V                 0.731047          1.826952
  43         V                 0.732863          1.826414
  44         V                 0.734803          2.195974
  45         V                 0.735745          2.210530
  46         V                 0.743782          1.354073
  47         V                 0.822096          2.116180
  48         V                 0.823487          2.110788
  49         V                 0.836572          1.799216
  50         V                 0.837756          1.797069
  51         V                 0.882038          2.255882
  52         V                 0.882469          2.246371
  53         V                 0.911131          2.344293
  54         V                 0.979840          2.617066
  55         V                 0.982272          1.953321
  56         V                 1.048188          1.650839
  57         V                 1.079665          2.185006
  58         V                 1.081924          2.152810
  59         V                 1.127738          2.859492
  60         V                 1.151797          1.798417
  61         V                 1.187476          1.812464
  62         V                 1.188122          1.798327
  63         V                 1.242572          1.983713
  64         V                 1.242710          1.982832
  65         V                 1.244253          1.846487
  66         V                 1.244588          1.846775
  67         V                 1.287998          2.382931
  68         V                 1.319436          1.961661
  69         V                 1.319697          1.961628
  70         V                 1.460633          2.126181
  71         V                 1.508866          2.150690
  72         V                 1.509187          2.151091
  73         V                 1.721589          2.470407
  74         V                 1.736704          2.320903
  75         V                 1.740462          2.337365
  76         V                 1.767889          2.207242
  77         V                 1.785502          2.478490
  78         V                 1.857856          2.591850
  79         V                 1.858391          2.591288
  80         V                 1.879383          2.697430
  81         V                 1.879649          2.696329
  82         V                 1.887744          2.320125
  83         V                 1.933358          2.791431
  84         V                 1.945218          2.376799
  85         V                 1.948179          2.374366
  86         V                 1.952525          2.527849
  87         V                 1.953331          2.526390
  88         V                 2.087783          2.830098
  89         V                 2.088074          2.829362
  90         V                 2.105867          2.631145
  91         V                 2.144052          3.556623
  92         V                 2.145257          3.578340
  93         V                 2.152701          3.499011
  94         V                 2.154024          3.447436
  95         V                 2.169813          3.141533
  96         V                 2.254799          2.742383
  97         V                 2.255080          2.741869
  98         V                 2.259012          3.102590
  99         V                 2.262107          3.068555
 100         V                 2.309854          3.515068
 101         V                 2.500065          3.113752
 102         V                 2.547147          3.129075
 103         V                 2.620425          4.177408
 104         V                 2.723421          4.337701
 105         V                 2.723550          4.338547
 106         V                 2.746399          4.856267
 107         V                 2.746517          4.875388
 108         V                 2.798868          4.265235
 109         V                 2.799495          4.261307
 110         V                 2.864597          6.465049
 111         V                 2.997368          4.215645
 112         V                 3.100248          5.769210
 113         V                 3.103569          6.081506
 114         V                 3.116154          4.734861
 115         V                 3.165091          5.374634
 116         V                 3.165139          5.374519
 117         V                 3.616294          6.981915
 118         V                 3.616509          6.982162
 119         V                 3.838522          6.233421
 120         V                 4.468171          8.358445
 Total kinetic energy from orbitals= 2.300762405864D+02
 Unable to Open any file for archive entry.
 1\1\GINC-MEDUSA\SP\RHF\CC-pVDZ\C6H6\DBWY\29-Sep-2015\0\\# hf/cc-pVDZ g
 finput pop=full nosymm 6D Field=X-100\\Benzene cc-pVDZ\\0,1\C,0,-0.648
 63549,0.24130784,-0.00045\C,0,0.74652451,0.24130784,-0.00045\C,0,1.444
 06251,1.44905884,-0.00045\C,0,0.74640851,2.65756784,-0.001649\C,0,-0.6
 4841649,2.65748984,-0.002128\C,0,-1.34601749,1.44928384,-0.001132\H,0,
 -1.19839449,-0.71100916,0.\H,0,1.29603251,-0.71120516,0.000865\H,0,2.5
 4374251,1.44913884,0.000184\H,0,1.29660851,3.60971084,-0.001708\H,0,-1
 .19853849,3.60977084,-0.003081\H,0,-2.44562149,1.44946684,-0.001312\\V
 ersion=ES64L-GDVRevI.01+\HF=-230.7251959\RMSD=8.182e-09\Dipole=0.73180
 74,-0.0000615,0.0004202\Quadrupole=2.2058021,2.1214849,-4.327287,2.005
 5276,0.001697,-0.0032613\PG=C01 [X(C6H6)]\\@
 The archive entry for this job was punched.


 THE ... SCIENTISTS WERE WRONG ... THE MOST PERSISTENT PRINCIPLES 
 OF THE UNIVERSE WERE ACCIDENT AND ERROR.

                          -- FRANK HERBERT IN DUNE
 Job cpu time:       0 days  0 hours  0 minutes  3.4 seconds.
 Elapsed time:       0 days  0 hours  0 minutes  3.2 seconds.
 File lengths (MBytes):  RWF=     10 Int=      0 D2E=      0 Chk=      2 Scr=      1
 Normal termination of Gaussian DV at Tue Sep 29 11:37:03 2015.
