 Entering Gaussian System, Link 0=gdv
 Input=benzene_cc-pVDZ_CIS.com
 Output=benzene_cc-pVDZ_CIS.log
 Initial command:
 /home/gauss/gdvi03p/gdv/l1.exe "/home/GauScr/Gau-3901.inp" -scrdir="/home/GauScr/"
 Entering Link 1 = /home/gauss/gdvi03p/gdv/l1.exe PID=      3902.
  
 Copyright (c) 1988,1990,1992,1993,1995,1998,2003,2009,2015,
            Gaussian, Inc.  All Rights Reserved.
  
 This is the private, development version of
 the Gaussian(R) DV system of programs. It is based on
 the Gaussian(R) 09 system (copyright 2009, Gaussian, Inc.),
 the Gaussian(R) 03 system (copyright 2003, Gaussian, Inc.),
 the Gaussian(R) 98 system (copyright 1998, Gaussian, Inc.),
 the Gaussian(R) 94 system (copyright 1995, Gaussian, Inc.),
 the Gaussian 92(TM) system (copyright 1992, Gaussian, Inc.),
 the Gaussian 90(TM) system (copyright 1990, Gaussian, Inc.),
 the Gaussian 88(TM) system (copyright 1988, Gaussian, Inc.),
 the Gaussian 86(TM) system (copyright 1986, Carnegie Mellon
 University), and the Gaussian 82(TM) system (copyright 1983,
 Carnegie Mellon University). Gaussian is a federally registered
 trademark of Gaussian, Inc.
  
 This software contains proprietary and confidential information,
 including trade secrets, belonging to Gaussian, Inc.
  
 This software is provided under written license and may be
 used, copied, transmitted, or stored only in accord with that
 written license.
  
 The following legend is applicable only to US Government
 contracts under FAR:
  
                    RESTRICTED RIGHTS LEGEND
  
 Use, reproduction and disclosure by the US Government is
 subject to restrictions as set forth in subparagraphs (a)
 and (c) of the Commercial Computer Software - Restricted
 Rights clause in FAR 52.227-19.
  
 Gaussian, Inc.
 340 Quinnipiac St., Bldg. 40, Wallingford CT 06492
  
  
 ---------------------------------------------------------------
 Warning -- This program may not be used in any manner that
 competes with the business of Gaussian, Inc. or will provide
 assistance to any competitor of Gaussian, Inc.  The licensee
 of this program is prohibited from giving any competitor of
 Gaussian, Inc. access to this program.  By using this program,
 the user acknowledges that Gaussian, Inc. is engaged in the
 business of creating and licensing software in the field of
 computational chemistry and represents and warrants to the
 licensee that it is not a competitor of Gaussian, Inc. and that
 it will not use this program in any manner prohibited above.
 ---------------------------------------------------------------
  

 Cite this work as:
 Gaussian Development Version, Revision I.03+,
 M. J. Frisch, G. W. Trucks, H. B. Schlegel, G. E. Scuseria, 
 M. A. Robb, J. R. Cheeseman, G. Scalmani, V. Barone, B. Mennucci, 
 G. A. Petersson, H. Nakatsuji, M. Caricato, X. Li, H. P. Hratchian, 
 J. Bloino, B. G. Janesko, A. F. Izmaylov, A. Marenich, F. Lipparini, 
 G. Zheng, J. L. Sonnenberg, W. Liang, M. Hada, M. Ehara, K. Toyota, 
 R. Fukuda, J. Hasegawa, M. Ishida, T. Nakajima, Y. Honda, O. Kitao, 
 H. Nakai, T. Vreven, K. Throssell, J. A. Montgomery, Jr., 
 J. E. Peralta, F. Ogliaro, M. Bearpark, J. J. Heyd, E. Brothers, 
 K. N. Kudin, V. N. Staroverov, T. Keith, R. Kobayashi, J. Normand, 
 K. Raghavachari, A. Rendell, J. C. Burant, S. S. Iyengar, J. Tomasi, 
 M. Cossi, N. Rega, J. M. Millam, M. Klene, J. E. Knox, J. B. Cross, 
 V. Bakken, C. Adamo, J. Jaramillo, R. Gomperts, R. E. Stratmann, 
 O. Yazyev, A. J. Austin, R. Cammi, C. Pomelli, J. W. Ochterski, 
 R. L. Martin, K. Morokuma, V. G. Zakrzewski, G. A. Voth, 
 P. Salvador, J. J. Dannenberg, S. Dapprich, P. V. Parandekar, 
 N. J. Mayhall, A. D. Daniels, O. Farkas, J. B. Foresman, 
 J. V. Ortiz, J. Cioslowski, and D. J. Fox, 
 Gaussian, Inc., Wallingford CT, 2014.
 
 *******************************************
 Gaussian DV:  ES64L-GDVRevI.03+  2-May-2015
                 28-Oct-2015 
 *******************************************
 %chk=benz
 %nproc=2
 Will use up to    2 processors via shared memory.
 --------------------------------------------
 # hf/cc-pvdz gfinput cis(full,nstates=12) 6D
 --------------------------------------------
 1/38=1,172=1/1;
 2/12=2,17=6,18=5,40=1/2;
 3/5=16,8=2,11=9,24=10,25=1,30=1/1,2,3,8;
 4//1;
 5/5=2,38=5/2;
 8/6=1,10=90,108=12/1,4;
 9/41=12,42=3/14;
 6/7=2,8=2,9=2,10=2/1;
 99/5=1,9=1/99;
 ---------------
 Benzene singlet
 ---------------
 Symbolic Z-matrix:
 Charge =  0 Multiplicity = 1
 C                    -0.20699  -0.18218   0.00007 
 C                     1.19167  -0.18235   0.0005 
 C                     1.89106   1.02887  -0.00007 
 C                     1.19173   2.24013  -0.00106 
 C                    -0.20692   2.24031  -0.00148 
 C                    -0.90631   1.02909  -0.00092 
 H                    -0.75075  -1.1239    0.00051 
 H                     1.73529  -1.12415   0.00127 
 H                     2.97848   1.02893   0.00027 
 H                     1.7355    3.18185  -0.0015 
 H                    -0.75054   3.1821   -0.00226 
 H                    -1.99373   1.02902  -0.00125 
 
                          Input orientation:                          
 ---------------------------------------------------------------------
 Center     Atomic      Atomic             Coordinates (Angstroms)
 Number     Number       Type             X           Y           Z
 ---------------------------------------------------------------------
      1          6           0       -0.206985   -0.182180    0.000071
      2          6           0        1.191674   -0.182353    0.000499
      3          6           0        1.891055    1.028868   -0.000066
      4          6           0        1.191735    2.240134   -0.001056
      5          6           0       -0.206924    2.240307   -0.001484
      6          6           0       -0.906306    1.029086   -0.000919
      7          1           0       -0.750746   -1.123896    0.000510
      8          1           0        1.735285   -1.124149    0.001271
      9          1           0        2.978478    1.028934    0.000267
     10          1           0        1.735496    3.181849   -0.001495
     11          1           0       -0.750536    3.182103   -0.002255
     12          1           0       -1.993729    1.029020   -0.001252
 ---------------------------------------------------------------------
                    Distance matrix (angstroms):
                    1          2          3          4          5
     1  C    0.000000
     2  C    1.398659   0.000000
     3  C    2.422480   1.398639   0.000000
     4  C    2.797145   2.422487   1.398648   0.000000
     5  C    2.422487   2.797385   2.422623   1.398659   0.000000
     6  C    1.398648   2.422623   2.797361   2.422480   1.398639
     7  H    1.087430   2.158587   3.407859   3.884576   3.407874
     8  H    2.158639   1.087425   2.158645   3.407910   3.884810
     9  H    3.407928   2.158677   1.087423   2.158578   3.407964
    10  H    3.884576   3.407874   2.158595   1.087430   2.158587
    11  H    3.407910   3.884810   3.407995   2.158639   1.087425
    12  H    2.158578   3.407964   3.884784   3.407928   2.158677
                    6          7          8          9         10
     6  C    0.000000
     7  H    2.158595   0.000000
     8  H    3.407995   2.486032   0.000000
     9  H    3.884784   4.306018   2.486221   0.000000
    10  H    3.407859   4.972006   4.306000   2.485971   0.000000
    11  H    2.158645   4.306000   4.972236   4.306006   2.486032
    12  H    1.087423   2.485971   4.306006   4.972207   4.306018
                   11         12
    11  H    0.000000
    12  H    2.486221   0.000000
 Stoichiometry    C6H6
 Framework group  CI[X(C6H6)]
 Deg. of freedom    15
 Full point group                 CI      NOp   2
 Largest Abelian subgroup         CI      NOp   2
 Largest concise Abelian subgroup CI      NOp   2
                         Standard orientation:                         
 ---------------------------------------------------------------------
 Center     Atomic      Atomic             Coordinates (Angstroms)
 Number     Number       Type             X           Y           Z
 ---------------------------------------------------------------------
      1          6           0       -0.699360   -1.211157    0.000564
      2          6           0        0.699299   -1.211330    0.000991
      3          6           0        1.398680   -0.000109    0.000427
      4          6           0        0.699360    1.211157   -0.000564
      5          6           0       -0.699299    1.211330   -0.000991
      6          6           0       -1.398680    0.000109   -0.000427
      7          1           0       -1.243121   -2.152873    0.001002
      8          1           0        1.242911   -2.153126    0.001763
      9          1           0        2.486104   -0.000043    0.000760
     10          1           0        1.243121    2.152873   -0.001002
     11          1           0       -1.242911    2.153126   -0.001763
     12          1           0       -2.486104    0.000043   -0.000760
 ---------------------------------------------------------------------
 Rotational constants (GHZ):      5.6717105      5.6710222      2.8356832
 Standard basis: CC-pVDZ (6D, 7F)
 AO basis set in the form of general basis input (Overlap normalization):
      1 0
 S   7 1.00       0.000000000000
      0.6665000000D+04  0.6935163173D-03
      0.1000000000D+04  0.5341502433D-02
      0.2280000000D+03  0.2713667141D-01
      0.6471000000D+02  0.1019923853D+00
      0.2106000000D+02  0.2755086365D+00
      0.7495000000D+01  0.4510864331D+00
      0.2797000000D+01  0.2875657448D+00
 S   7 1.00       0.000000000000
      0.6665000000D+04  0.7733547404D-05
      0.2280000000D+03  0.2780721367D-03
      0.6471000000D+02 -0.2578756542D-02
      0.2106000000D+02 -0.8950876838D-02
      0.7495000000D+01 -0.1060588547D+00
      0.2797000000D+01 -0.1315176856D+00
      0.5215000000D+00  0.1099486598D+01
 S   1 1.00       0.000000000000
      0.1596000000D+00  0.1000000000D+01
 P   3 1.00       0.000000000000
      0.9439000000D+01  0.5697925159D-01
      0.2002000000D+01  0.3132072115D+00
      0.5456000000D+00  0.7603767417D+00
 P   1 1.00       0.000000000000
      0.1517000000D+00  0.1000000000D+01
 D   1 1.00       0.000000000000
      0.5500000000D+00  0.1000000000D+01
 ****
      2 0
 S   7 1.00       0.000000000000
      0.6665000000D+04  0.6935163173D-03
      0.1000000000D+04  0.5341502433D-02
      0.2280000000D+03  0.2713667141D-01
      0.6471000000D+02  0.1019923853D+00
      0.2106000000D+02  0.2755086365D+00
      0.7495000000D+01  0.4510864331D+00
      0.2797000000D+01  0.2875657448D+00
 S   7 1.00       0.000000000000
      0.6665000000D+04  0.7733547404D-05
      0.2280000000D+03  0.2780721367D-03
      0.6471000000D+02 -0.2578756542D-02
      0.2106000000D+02 -0.8950876838D-02
      0.7495000000D+01 -0.1060588547D+00
      0.2797000000D+01 -0.1315176856D+00
      0.5215000000D+00  0.1099486598D+01
 S   1 1.00       0.000000000000
      0.1596000000D+00  0.1000000000D+01
 P   3 1.00       0.000000000000
      0.9439000000D+01  0.5697925159D-01
      0.2002000000D+01  0.3132072115D+00
      0.5456000000D+00  0.7603767417D+00
 P   1 1.00       0.000000000000
      0.1517000000D+00  0.1000000000D+01
 D   1 1.00       0.000000000000
      0.5500000000D+00  0.1000000000D+01
 ****
      3 0
 S   7 1.00       0.000000000000
      0.6665000000D+04  0.6935163173D-03
      0.1000000000D+04  0.5341502433D-02
      0.2280000000D+03  0.2713667141D-01
      0.6471000000D+02  0.1019923853D+00
      0.2106000000D+02  0.2755086365D+00
      0.7495000000D+01  0.4510864331D+00
      0.2797000000D+01  0.2875657448D+00
 S   7 1.00       0.000000000000
      0.6665000000D+04  0.7733547404D-05
      0.2280000000D+03  0.2780721367D-03
      0.6471000000D+02 -0.2578756542D-02
      0.2106000000D+02 -0.8950876838D-02
      0.7495000000D+01 -0.1060588547D+00
      0.2797000000D+01 -0.1315176856D+00
      0.5215000000D+00  0.1099486598D+01
 S   1 1.00       0.000000000000
      0.1596000000D+00  0.1000000000D+01
 P   3 1.00       0.000000000000
      0.9439000000D+01  0.5697925159D-01
      0.2002000000D+01  0.3132072115D+00
      0.5456000000D+00  0.7603767417D+00
 P   1 1.00       0.000000000000
      0.1517000000D+00  0.1000000000D+01
 D   1 1.00       0.000000000000
      0.5500000000D+00  0.1000000000D+01
 ****
      4 0
 S   7 1.00       0.000000000000
      0.6665000000D+04  0.6935163173D-03
      0.1000000000D+04  0.5341502433D-02
      0.2280000000D+03  0.2713667141D-01
      0.6471000000D+02  0.1019923853D+00
      0.2106000000D+02  0.2755086365D+00
      0.7495000000D+01  0.4510864331D+00
      0.2797000000D+01  0.2875657448D+00
 S   7 1.00       0.000000000000
      0.6665000000D+04  0.7733547404D-05
      0.2280000000D+03  0.2780721367D-03
      0.6471000000D+02 -0.2578756542D-02
      0.2106000000D+02 -0.8950876838D-02
      0.7495000000D+01 -0.1060588547D+00
      0.2797000000D+01 -0.1315176856D+00
      0.5215000000D+00  0.1099486598D+01
 S   1 1.00       0.000000000000
      0.1596000000D+00  0.1000000000D+01
 P   3 1.00       0.000000000000
      0.9439000000D+01  0.5697925159D-01
      0.2002000000D+01  0.3132072115D+00
      0.5456000000D+00  0.7603767417D+00
 P   1 1.00       0.000000000000
      0.1517000000D+00  0.1000000000D+01
 D   1 1.00       0.000000000000
      0.5500000000D+00  0.1000000000D+01
 ****
      5 0
 S   7 1.00       0.000000000000
      0.6665000000D+04  0.6935163173D-03
      0.1000000000D+04  0.5341502433D-02
      0.2280000000D+03  0.2713667141D-01
      0.6471000000D+02  0.1019923853D+00
      0.2106000000D+02  0.2755086365D+00
      0.7495000000D+01  0.4510864331D+00
      0.2797000000D+01  0.2875657448D+00
 S   7 1.00       0.000000000000
      0.6665000000D+04  0.7733547404D-05
      0.2280000000D+03  0.2780721367D-03
      0.6471000000D+02 -0.2578756542D-02
      0.2106000000D+02 -0.8950876838D-02
      0.7495000000D+01 -0.1060588547D+00
      0.2797000000D+01 -0.1315176856D+00
      0.5215000000D+00  0.1099486598D+01
 S   1 1.00       0.000000000000
      0.1596000000D+00  0.1000000000D+01
 P   3 1.00       0.000000000000
      0.9439000000D+01  0.5697925159D-01
      0.2002000000D+01  0.3132072115D+00
      0.5456000000D+00  0.7603767417D+00
 P   1 1.00       0.000000000000
      0.1517000000D+00  0.1000000000D+01
 D   1 1.00       0.000000000000
      0.5500000000D+00  0.1000000000D+01
 ****
      6 0
 S   7 1.00       0.000000000000
      0.6665000000D+04  0.6935163173D-03
      0.1000000000D+04  0.5341502433D-02
      0.2280000000D+03  0.2713667141D-01
      0.6471000000D+02  0.1019923853D+00
      0.2106000000D+02  0.2755086365D+00
      0.7495000000D+01  0.4510864331D+00
      0.2797000000D+01  0.2875657448D+00
 S   7 1.00       0.000000000000
      0.6665000000D+04  0.7733547404D-05
      0.2280000000D+03  0.2780721367D-03
      0.6471000000D+02 -0.2578756542D-02
      0.2106000000D+02 -0.8950876838D-02
      0.7495000000D+01 -0.1060588547D+00
      0.2797000000D+01 -0.1315176856D+00
      0.5215000000D+00  0.1099486598D+01
 S   1 1.00       0.000000000000
      0.1596000000D+00  0.1000000000D+01
 P   3 1.00       0.000000000000
      0.9439000000D+01  0.5697925159D-01
      0.2002000000D+01  0.3132072115D+00
      0.5456000000D+00  0.7603767417D+00
 P   1 1.00       0.000000000000
      0.1517000000D+00  0.1000000000D+01
 D   1 1.00       0.000000000000
      0.5500000000D+00  0.1000000000D+01
 ****
      7 0
 S   3 1.00       0.000000000000
      0.1301000000D+02  0.3349872639D-01
      0.1962000000D+01  0.2348008012D+00
      0.4446000000D+00  0.8136829579D+00
 S   1 1.00       0.000000000000
      0.1220000000D+00  0.1000000000D+01
 P   1 1.00       0.000000000000
      0.7270000000D+00  0.1000000000D+01
 ****
      8 0
 S   3 1.00       0.000000000000
      0.1301000000D+02  0.3349872639D-01
      0.1962000000D+01  0.2348008012D+00
      0.4446000000D+00  0.8136829579D+00
 S   1 1.00       0.000000000000
      0.1220000000D+00  0.1000000000D+01
 P   1 1.00       0.000000000000
      0.7270000000D+00  0.1000000000D+01
 ****
      9 0
 S   3 1.00       0.000000000000
      0.1301000000D+02  0.3349872639D-01
      0.1962000000D+01  0.2348008012D+00
      0.4446000000D+00  0.8136829579D+00
 S   1 1.00       0.000000000000
      0.1220000000D+00  0.1000000000D+01
 P   1 1.00       0.000000000000
      0.7270000000D+00  0.1000000000D+01
 ****
     10 0
 S   3 1.00       0.000000000000
      0.1301000000D+02  0.3349872639D-01
      0.1962000000D+01  0.2348008012D+00
      0.4446000000D+00  0.8136829579D+00
 S   1 1.00       0.000000000000
      0.1220000000D+00  0.1000000000D+01
 P   1 1.00       0.000000000000
      0.7270000000D+00  0.1000000000D+01
 ****
     11 0
 S   3 1.00       0.000000000000
      0.1301000000D+02  0.3349872639D-01
      0.1962000000D+01  0.2348008012D+00
      0.4446000000D+00  0.8136829579D+00
 S   1 1.00       0.000000000000
      0.1220000000D+00  0.1000000000D+01
 P   1 1.00       0.000000000000
      0.7270000000D+00  0.1000000000D+01
 ****
     12 0
 S   3 1.00       0.000000000000
      0.1301000000D+02  0.3349872639D-01
      0.1962000000D+01  0.2348008012D+00
      0.4446000000D+00  0.8136829579D+00
 S   1 1.00       0.000000000000
      0.1220000000D+00  0.1000000000D+01
 P   1 1.00       0.000000000000
      0.7270000000D+00  0.1000000000D+01
 ****

 There are    60 symmetry adapted cartesian basis functions of AG  symmetry.
 There are    60 symmetry adapted cartesian basis functions of AU  symmetry.
 There are    60 symmetry adapted basis functions of AG  symmetry.
 There are    60 symmetry adapted basis functions of AU  symmetry.
   120 basis functions,   240 primitive gaussians,   120 cartesian basis functions
    21 alpha electrons       21 beta electrons
       nuclear repulsion energy       202.9242874114 Hartrees.
 NAtoms=   12 NActive=   12 NUniq=    6 SFac= 4.00D+00 NAtFMM=   60 NAOKFM=F Big=F
 Integral buffers will be    131072 words long.
 Raffenetti 1 integral format.
 Two-electron integral symmetry is turned on.
 One-electron integrals computed using PRISM.
 NBasis=   120 RedAO= T EigKep=  3.42D-04  NBF=    60    60
 NBsUse=   120 1.00D-06 EigRej= -1.00D+00 NBFU=    60    60
 ExpMin= 1.22D-01 ExpMax= 6.67D+03 ExpMxC= 2.28D+02 IAcc=1 IRadAn=         1 AccDes= 0.00D+00
 Harris functional with IExCor=  205 and IRadAn=       1 diagonalized for initial guess.
 HarFok:  IExCor=  205 AccDes= 0.00D+00 IRadAn=         1 IDoV= 1 UseB2=F ITyADJ=14
 ICtDFT=  3500011 ScaDFX=  1.000000  1.000000  1.000000  1.000000
 FoFCou: FMM=F IPFlag=           0 FMFlag=      100000 FMFlg1=           0
         NFxFlg=           0 DoJE=T BraDBF=F KetDBF=T FulRan=T
         wScrn=  0.000000 ICntrl=       500 IOpCl=  0 I1Cent=   200000004 NGrid=           0
         NMat0=    1 NMatS0=      1 NMatT0=    0 NMatD0=    1 NMtDS0=    0 NMtDT0=    0
 Petite list used in FoFCou.
 Initial guess orbital symmetries:
       Occupied  (AG) (AU) (AU) (AG) (AG) (AU) (AG) (AU) (AU) (AG)
                 (AG) (AG) (AU) (AU) (AU) (AU) (AU) (AG) (AG) (AG)
                 (AG)
       Virtual   (AU) (AU) (AG) (AG) (AU) (AU) (AG) (AG) (AU) (AG)
                 (AG) (AU) (AU) (AU) (AG) (AU) (AU) (AG) (AU) (AU)
                 (AG) (AG) (AG) (AG) (AG) (AU) (AU) (AG) (AG) (AU)
                 (AU) (AG) (AU) (AG) (AU) (AG) (AU) (AU) (AG) (AG)
                 (AG) (AG) (AG) (AU) (AU) (AU) (AU) (AU) (AG) (AG)
                 (AG) (AU) (AU) (AU) (AG) (AG) (AU) (AU) (AG) (AG)
                 (AU) (AG) (AG) (AU) (AU) (AU) (AG) (AG) (AG) (AG)
                 (AU) (AU) (AU) (AG) (AU) (AU) (AG) (AG) (AU) (AU)
                 (AG) (AG) (AG) (AG) (AU) (AU) (AG) (AU) (AU) (AU)
                 (AU) (AU) (AG) (AG) (AG) (AG) (AG) (AU) (AU)
 The electronic state of the initial guess is 1-AG.
 Requested convergence on RMS density matrix=1.00D-08 within 128 cycles.
 Requested convergence on MAX density matrix=1.00D-06.
 Requested convergence on             energy=1.00D-06.
 No special actions if energy rises.
 Integral accuracy reduced to 1.0D-05 until final iterations.
 Initial convergence to 1.0D-05 achieved.  Increase integral accuracy.
 SCF Done:  E(RHF) =  -230.722342149     A.U. after   10 cycles
            NFock= 10  Conv=0.36D-08     -V/T= 2.0026
 Range of M.O.s used for correlation:     1   120
 NBasis=   120 NAE=    21 NBE=    21 NFC=     0 NFV=     0
 NROrb=    120 NOA=    21 NOB=    21 NVA=    99 NVB=    99

 **** Warning!!: The largest alpha MO coefficient is  0.11628315D+02

 Semi-Direct transformation.
 ModeAB=           4 MOrb=            21 LenV=      33017944
 LASXX=      5799696 LTotXX=     5799696 LenRXX=    11798997
 LTotAB=     5999301 MaxLAS=     9480240 LenRXY=           0
 NonZer=    17598693 LenScr=    27166720 LnRSAI=     9480240
 LnScr1=    14960640 LExtra=           0 Total=     63406597
 MaxDsk=          -1 SrtSym=           T ITran=            3
 JobTyp=0 Pass  1:  I=   1 to  21.
 (rs|ai) integrals will be sorted in core.
 Spin components of T(2) and E(2):
     alpha-alpha T2 =       0.4186316269D-01 E2=     -0.1069068922D+00
     alpha-beta  T2 =       0.2192782886D+00 E2=     -0.6045873799D+00
     beta-beta   T2 =       0.4186316269D-01 E2=     -0.1069068922D+00
 ANorm=    0.1141492275D+01
 E2 =    -0.8184011643D+00 EUMP2 =    -0.23154074331318D+03
 Orbital symmetries:
       Occupied  (AG) (AU) (AU) (AG) (AG) (AU) (AG) (AU) (AU) (AG)
                 (AG) (AG) (AU) (AU) (AU) (AU) (AU) (AG) (AG) (AG)
                 (AG)
       Virtual   (AU) (AU) (AG) (AU) (AU) (AG) (AG) (AU) (AG) (AG)
                 (AG) (AU) (AU) (AG) (AU) (AG) (AU) (AU) (AU) (AU)
                 (AG) (AG) (AG) (AG) (AG) (AU) (AU) (AU) (AU) (AG)
                 (AG) (AG) (AU) (AG) (AU) (AU) (AU) (AG) (AG) (AG)
                 (AG) (AU) (AU) (AG) (AG) (AU) (AU) (AU) (AG) (AG)
                 (AG) (AU) (AU) (AU) (AG) (AG) (AG) (AG) (AU) (AU)
                 (AU) (AU) (AG) (AG) (AU) (AU) (AG) (AG) (AU) (AU)
                 (AU) (AG) (AG) (AG) (AU) (AU) (AG) (AG) (AU) (AU)
                 (AG) (AG) (AG) (AG) (AU) (AU) (AU) (AU) (AG) (AU)
                 (AU) (AU) (AG) (AG) (AG) (AG) (AG) (AU) (AU)
    48 initial guesses have been made.
 Convergence on wavefunction:    0.001000000000000
 Iteration     1 Dimension    48 NMult     0 NNew     48
 New state      3 was old state      5
 New state      4 was old state      6
 New state      5 was old state     13
 New state      6 was old state      3
 New state      7 was old state      4
 New state      9 was old state      7
 New state     10 was old state      9
 New state     11 was old state     10
 New state     12 was old state     16
 Iteration     2 Dimension    96 NMult    48 NNew     48
 New state      3 was old state      6
 New state      4 was old state      7
 New state      5 was old state      3
 New state      6 was old state      4
 New state      7 was old state      5
 New state      8 was old state     11
 New state      9 was old state     10
 New state     10 was old state      9
 New state     11 was old state      8
 Iteration     3 Dimension   108 NMult    96 NNew     12
 Iteration     4 Dimension   120 NMult   108 NNew     12
 Iteration     5 Dimension   128 NMult   120 NNew      8
 Iteration     6 Dimension   130 NMult   128 NNew      2
 Convergence on energies, max DE= 2.30D-06.
 ***********************************************************************
 Excited states from <AA,BB:AA,BB> singles matrix:
 ***********************************************************************
 
 Ground to excited state transition densities written to RWF  633
 Ground to excited state transition electric dipole moments (Au):
       state          X           Y           Z        Dip. S.      Osc.
         1        -0.0003      0.0001      0.0000      0.0000      0.0000
         2         0.0001      0.0000      0.0000      0.0000      0.0000
         3         1.4676      1.8296     -0.0007      5.5013      1.1237
         4         1.8297     -1.4677      0.0015      5.5020      1.1239
         5         0.0000      0.0000      0.0000      0.0000      0.0000
         6         0.0000      0.0000      0.0000      0.0000      0.0000
         7        -0.0001      0.0003      0.4275      0.1827      0.0413
         8         0.0000      0.0000      0.0000      0.0000      0.0000
         9         0.0000      0.0000     -0.0002      0.0000      0.0000
        10         0.0000      0.0000      0.0000      0.0000      0.0000
        11         0.0000      0.0001      0.1617      0.0262      0.0062
        12         0.0000      0.0000     -0.0001      0.0000      0.0000
 Ground to excited state transition velocity dipole moments (Au):
       state          X           Y           Z        Dip. S.      Osc.
         1         0.0000      0.0000      0.0000      0.0000      0.0000
         2         0.0000      0.0000      0.0000      0.0000      0.0000
         3        -0.1329     -0.1657      0.0001      0.0451      0.0982
         4        -0.1657      0.1328     -0.0001      0.0451      0.0981
         5         0.0000      0.0000      0.0000      0.0000      0.0000
         6         0.0000      0.0000      0.0000      0.0000      0.0000
         7         0.0001     -0.0001     -0.1710      0.0292      0.0575
         8         0.0000      0.0000      0.0000      0.0000      0.0000
         9         0.0000      0.0000      0.0001      0.0000      0.0000
        10         0.0000      0.0000      0.0000      0.0000      0.0000
        11         0.0000      0.0000     -0.0586      0.0034      0.0065
        12         0.0000      0.0000      0.0000      0.0000      0.0000
 Ground to excited state transition magnetic dipole moments (Au):
       state          X           Y           Z
         1         0.0000      0.0000      0.0000
         2         0.0000      0.0000      0.0000
         3         0.0000      0.0000      0.0000
         4         0.0000      0.0000      0.0000
         5        -0.5391      0.2834     -0.0003
         6        -0.2834     -0.5391      0.0003
         7         0.0000      0.0000      0.0000
         8         0.0000      0.0000      0.0000
         9         0.0000      0.0000      0.0000
        10         0.0000      0.0000      0.0000
        11         0.0000      0.0000      0.0000
        12         0.0000      0.0000      0.0000
 Ground to excited state transition velocity quadrupole moments (Au):
       state          XX          YY          ZZ          XY          XZ          YZ
         1         0.0000      0.0000      0.0000      0.0000      0.0000      0.0000
         2         0.0000      0.0000      0.0000      0.0000      0.0000      0.0000
         3         0.0000      0.0000      0.0000      0.0000      0.0000      0.0000
         4         0.0000      0.0000      0.0000      0.0000      0.0000      0.0000
         5         0.0001     -0.0005      0.0004      0.0000     -0.2155     -0.4105
         6        -0.0003     -0.0003      0.0005      0.0003      0.4105     -0.2155
         7         0.0000      0.0000      0.0000      0.0000      0.0000      0.0000
         8         0.0000      0.0000      0.0000      0.0000      0.0000      0.0000
         9         0.0000      0.0000      0.0000      0.0000      0.0000      0.0000
        10         0.0000      0.0000      0.0000      0.0000      0.0000      0.0000
        11         0.0000      0.0000      0.0000      0.0000      0.0000      0.0000
        12         0.0000      0.0000      0.0000      0.0000      0.0000      0.0000
 <0|del|b> * <b|rxdel|0> + <0|del|b> * <b|delr+rdel|0>
 Rotatory Strengths (R) in cgs (10**-40 erg-esu-cm/Gauss)
       state          XX          YY          ZZ    R(velocity)    E-M Angle
         1         0.0000      0.0000      0.0000      0.0000       90.00
         2         0.0000      0.0000      0.0000      0.0000       90.00
         3         0.0000      0.0000      0.0000      0.0000       90.00
         4         0.0000      0.0000      0.0000      0.0000       90.00
         5         0.0000      0.0000      0.0000      0.0000       90.00
         6         0.0000      0.0000      0.0000      0.0000       90.00
         7         0.0000      0.0000      0.0000      0.0000       90.00
         8         0.0000      0.0000      0.0000      0.0000       90.00
         9         0.0000      0.0000      0.0000      0.0000       90.00
        10         0.0000      0.0000      0.0000      0.0000       90.00
        11         0.0000      0.0000      0.0000      0.0000       90.00
        12         0.0000      0.0000      0.0000      0.0000       90.00
 1/2[<0|r|b>*<b|rxdel|0> + (<0|rxdel|b>*<b|r|0>)*]
 Rotatory Strengths (R) in cgs (10**-40 erg-esu-cm/Gauss)
       state          XX          YY          ZZ     R(length)
         1         0.0000      0.0000      0.0000      0.0000
         2         0.0000      0.0000      0.0000      0.0000
         3         0.0000      0.0000      0.0000      0.0000
         4         0.0000      0.0000      0.0000      0.0000
         5         0.0000      0.0000      0.0000      0.0000
         6         0.0000      0.0000      0.0000      0.0000
         7         0.0000      0.0000      0.0000      0.0000
         8         0.0000      0.0000      0.0000      0.0000
         9         0.0000      0.0000      0.0000      0.0000
        10         0.0000      0.0000      0.0000      0.0000
        11         0.0000      0.0000      0.0000      0.0000
        12         0.0000      0.0000      0.0000      0.0000
  1/2[<0|del|b>*<b|r|0> + (<0|r|b>*<b|del|0>)*] (Au)
       state          X           Y           Z        Dip. S.   Osc.(frdel)
         1         0.0000      0.0000      0.0000      0.0000      0.0000
         2         0.0000      0.0000      0.0000      0.0000      0.0000
         3        -0.1950     -0.3032      0.0000      0.4982      0.3322
         4        -0.3032     -0.1950      0.0000      0.4981      0.3321
         5         0.0000      0.0000      0.0000      0.0000      0.0000
         6         0.0000      0.0000      0.0000      0.0000      0.0000
         7         0.0000      0.0000     -0.0731      0.0731      0.0487
         8         0.0000      0.0000      0.0000      0.0000      0.0000
         9         0.0000      0.0000      0.0000      0.0000      0.0000
        10         0.0000      0.0000      0.0000      0.0000      0.0000
        11         0.0000      0.0000     -0.0095      0.0095      0.0063
        12         0.0000      0.0000      0.0000      0.0000      0.0000

 Excitation energies and oscillator strengths:
 
 Excited State   1:      Singlet-AU     6.1649 eV  201.11 nm  f=0.0000  <S**2>=0.000
      20 -> 22        -0.17429
      20 -> 23         0.46703
      21 -> 22         0.46715
      21 -> 23         0.17431
 This state for optimization and/or second-order correction.
 Total Energy, E(CIS) =  -230.495787501    
 Copying the excited state density for this state as the 1-particle RhoCI density.
 
 Excited State   2:      Singlet-AU     6.3333 eV  195.77 nm  f=0.0000  <S**2>=0.000
      20 -> 22        -0.45923
      20 -> 23        -0.17136
      21 -> 22        -0.17140
      21 -> 23         0.45929
 
 Excited State   3:      Singlet-AU     8.3375 eV  148.71 nm  f=1.1237  <S**2>=0.000
      20 -> 22         0.45529
      20 -> 23         0.16155
      21 -> 22        -0.16149
      21 -> 23         0.45523
 
 Excited State   4:      Singlet-AU     8.3375 eV  148.71 nm  f=1.1239  <S**2>=0.000
      20 -> 22        -0.16153
      20 -> 23         0.45531
      21 -> 22        -0.45520
      21 -> 23        -0.16151
 
 Excited State   5:      Singlet-AG     8.5369 eV  145.23 nm  f=0.0000  <S**2>=0.000
      21 -> 24         0.67717
 
 Excited State   6:      Singlet-AG     8.5373 eV  145.23 nm  f=0.0000  <S**2>=0.000
      20 -> 24         0.67717
 
 Excited State   7:      Singlet-AU     9.2186 eV  134.49 nm  f=0.0413  <S**2>=0.000
      17 -> 24        -0.23653
      20 -> 25        -0.34792
      20 -> 26        -0.29274
      21 -> 25         0.29295
      21 -> 26        -0.34811
 
 Excited State   8:      Singlet-AU     9.3490 eV  132.62 nm  f=0.0000  <S**2>=0.000
      14 -> 30         0.16046
      18 -> 23         0.46775
      19 -> 22         0.46884
 
 Excited State   9:      Singlet-AU     9.5853 eV  129.35 nm  f=0.0000  <S**2>=0.000
      16 -> 30        -0.12576
      18 -> 22         0.44792
      18 -> 23         0.13366
      19 -> 22        -0.13366
      19 -> 23         0.44958
 
 Excited State  10:      Singlet-AU     9.5853 eV  129.35 nm  f=0.0000  <S**2>=0.000
      15 -> 30        -0.12574
      18 -> 22        -0.13385
      18 -> 23         0.44922
      19 -> 22        -0.44827
      19 -> 23        -0.13345
 
 Excited State  11:      Singlet-AU     9.6664 eV  128.26 nm  f=0.0062  <S**2>=0.000
      13 -> 30         0.10451
      18 -> 22         0.47536
      19 -> 23        -0.47393
 
 Excited State  12:      Singlet-AU     9.9161 eV  125.03 nm  f=0.0000  <S**2>=0.000
      17 -> 28        -0.11838
      18 -> 22         0.10768
      19 -> 23         0.10743
      20 -> 25         0.33196
      20 -> 26         0.32307
      21 -> 25         0.32291
      21 -> 26        -0.33169
      21 -> 29         0.13874
 SavETr:  write IOETrn=   770 NScale= 10 NData=  16 NLR=1 NState=   12 LETran=     226.

 **********************************************************************

            Population analysis using the SCF density.

 **********************************************************************

 Orbital symmetries:
       Occupied  (AG) (AU) (AU) (AG) (AG) (AU) (AG) (AU) (AU) (AG)
                 (AG) (AG) (AU) (AU) (AU) (AU) (AU) (AG) (AG) (AG)
                 (AG)
       Virtual   (AU) (AU) (AG) (AU) (AU) (AG) (AG) (AU) (AG) (AG)
                 (AG) (AU) (AU) (AG) (AU) (AG) (AU) (AU) (AU) (AU)
                 (AG) (AG) (AG) (AG) (AG) (AU) (AU) (AU) (AU) (AG)
                 (AG) (AG) (AU) (AG) (AU) (AU) (AU) (AG) (AG) (AG)
                 (AG) (AU) (AU) (AG) (AG) (AU) (AU) (AU) (AG) (AG)
                 (AG) (AU) (AU) (AU) (AG) (AG) (AG) (AG) (AU) (AU)
                 (AU) (AU) (AG) (AG) (AU) (AU) (AG) (AG) (AU) (AU)
                 (AU) (AG) (AG) (AG) (AU) (AU) (AG) (AG) (AU) (AU)
                 (AG) (AG) (AG) (AG) (AU) (AU) (AU) (AU) (AG) (AU)
                 (AU) (AU) (AG) (AG) (AG) (AG) (AG) (AU) (AU)
 The electronic state is 1-AG.
 Alpha  occ. eigenvalues --  -11.24251 -11.24195 -11.24195 -11.24076 -11.24075
 Alpha  occ. eigenvalues --  -11.24017  -1.14565  -1.01118  -1.01117  -0.82018
 Alpha  occ. eigenvalues --   -0.82017  -0.70331  -0.64065  -0.61361  -0.58326
 Alpha  occ. eigenvalues --   -0.58322  -0.49727  -0.49033  -0.49031  -0.33284
 Alpha  occ. eigenvalues --   -0.33283
 Alpha virt. eigenvalues --    0.13631   0.13631   0.18153   0.21959   0.21959
 Alpha virt. eigenvalues --    0.25507   0.25508   0.27124   0.34880   0.43575
 Alpha virt. eigenvalues --    0.43577   0.46721   0.46722   0.58335   0.58583
 Alpha virt. eigenvalues --    0.66151   0.66862   0.68100   0.71310   0.71311
 Alpha virt. eigenvalues --    0.73257   0.73257   0.73362   0.73363   0.74059
 Alpha virt. eigenvalues --    0.82268   0.82269   0.84356   0.84357   0.88333
 Alpha virt. eigenvalues --    0.88335   0.90907   0.97576   0.98204   1.04968
 Alpha virt. eigenvalues --    1.08000   1.08001   1.12172   1.15057   1.18494
 Alpha virt. eigenvalues --    1.18494   1.24056   1.24056   1.24340   1.24344
 Alpha virt. eigenvalues --    1.28942   1.31697   1.31699   1.46809   1.51258
 Alpha virt. eigenvalues --    1.51262   1.71817   1.74051   1.74053   1.76448
 Alpha virt. eigenvalues --    1.78728   1.85616   1.85620   1.88283   1.88290
 Alpha virt. eigenvalues --    1.89815   1.93023   1.95070   1.95072   1.95378
 Alpha virt. eigenvalues --    1.95386   2.08631   2.08636   2.11761   2.14327
 Alpha virt. eigenvalues --    2.14332   2.15100   2.15102   2.16598   2.26204
 Alpha virt. eigenvalues --    2.26206   2.27374   2.27375   2.32259   2.49379
 Alpha virt. eigenvalues --    2.55552   2.64999   2.72936   2.72937   2.75774
 Alpha virt. eigenvalues --    2.75774   2.81846   2.81853   2.86997   2.99799
 Alpha virt. eigenvalues --    3.10479   3.10482   3.12442   3.16943   3.16947
 Alpha virt. eigenvalues --    3.62821   3.62823   3.82576   4.49744
          Condensed to atoms (all electrons):
               1          2          3          4          5          6
     1  C    4.699781   0.549217  -0.050541  -0.034985  -0.050539   0.549226
     2  C    0.549217   4.699770   0.549183  -0.050539  -0.034968  -0.050524
     3  C   -0.050541   0.549183   4.699759   0.549226  -0.050524  -0.034968
     4  C   -0.034985  -0.050539   0.549226   4.699781   0.549217  -0.050541
     5  C   -0.050539  -0.034968  -0.050524   0.549217   4.699770   0.549183
     6  C    0.549226  -0.050524  -0.034968  -0.050541   0.549183   4.699759
     7  H    0.423315  -0.036026   0.006007  -0.000464   0.006007  -0.036023
     8  H   -0.036016   0.423322  -0.036027   0.006005  -0.000464   0.006005
     9  H    0.006005  -0.036029   0.423322  -0.036015   0.006006  -0.000464
    10  H   -0.000464   0.006007  -0.036023   0.423315  -0.036026   0.006007
    11  H    0.006005  -0.000464   0.006005  -0.036016   0.423322  -0.036027
    12  H   -0.036015   0.006006  -0.000464   0.006005  -0.036029   0.423322
               7          8          9         10         11         12
     1  C    0.423315  -0.036016   0.006005  -0.000464   0.006005  -0.036015
     2  C   -0.036026   0.423322  -0.036029   0.006007  -0.000464   0.006006
     3  C    0.006007  -0.036027   0.423322  -0.036023   0.006005  -0.000464
     4  C   -0.000464   0.006005  -0.036015   0.423315  -0.036016   0.006005
     5  C    0.006007  -0.000464   0.006006  -0.036026   0.423322  -0.036029
     6  C   -0.036023   0.006005  -0.000464   0.006007  -0.036027   0.423322
     7  H    0.629386  -0.008425  -0.000174   0.000038  -0.000174  -0.008427
     8  H   -0.008425   0.629360  -0.008421  -0.000174   0.000038  -0.000174
     9  H   -0.000174  -0.008421   0.629366  -0.008427  -0.000174   0.000038
    10  H    0.000038  -0.000174  -0.008427   0.629386  -0.008425  -0.000174
    11  H   -0.000174   0.000038  -0.000174  -0.008425   0.629360  -0.008421
    12  H   -0.008427  -0.000174   0.000038  -0.000174  -0.008421   0.629366
 Mulliken charges:
               1
     1  C   -0.024990
     2  C   -0.024955
     3  C   -0.024955
     4  C   -0.024990
     5  C   -0.024955
     6  C   -0.024955
     7  H    0.024961
     8  H    0.024971
     9  H    0.024968
    10  H    0.024961
    11  H    0.024971
    12  H    0.024968
 Sum of Mulliken charges =   0.00000
 Mulliken charges with hydrogens summed into heavy atoms:
               1
     1  C   -0.000029
     2  C    0.000016
     3  C    0.000013
     4  C   -0.000029
     5  C    0.000016
     6  C    0.000013
 Electronic spatial extent (au):  <R**2>=            461.1901
 Charge=              0.0000 electrons
 Dipole moment (field-independent basis, Debye):
    X=              0.0000    Y=              0.0000    Z=              0.0000  Tot=              0.0000
 Quadrupole moment (field-independent basis, Debye-Ang):
   XX=            -31.7387   YY=            -31.7392   ZZ=            -40.4594
   XY=             -0.0004   XZ=              0.0027   YZ=             -0.0056
 Traceless Quadrupole moment (field-independent basis, Debye-Ang):
   XX=              2.9071   YY=              2.9065   ZZ=             -5.8136
   XY=             -0.0004   XZ=              0.0027   YZ=             -0.0056
 Octapole moment (field-independent basis, Debye-Ang**2):
  XXX=              0.0000  YYY=              0.0000  ZZZ=              0.0000  XYY=              0.0000
  XXY=              0.0000  XXZ=              0.0000  XZZ=              0.0000  YZZ=              0.0000
  YYZ=              0.0000  XYZ=              0.0000
 Hexadecapole moment (field-independent basis, Debye-Ang**3):
 XXXX=           -271.1903 YYYY=           -271.1823 ZZZZ=            -46.4543 XXXY=              0.0075
 XXXZ=             -0.0246 YYYX=              0.0001 YYYZ=              0.0518 ZZZX=             -0.0440
 ZZZY=              0.0925 XXYY=            -90.3972 XXZZ=            -63.4887 YYZZ=            -63.4865
 XXYZ=              0.0173 YYXZ=             -0.0082 ZZXY=              0.0020
 N-N= 2.029242874114D+02 E-N=-9.423701327210D+02  KE= 2.301250420791D+02
 Symmetry AG   KE= 1.160285478647D+02
 Symmetry AU   KE= 1.140964942144D+02
 Unable to Open any file for archive entry.
 1\1\GINC-MEDUSA\SP\RCIS-Full\CC-pVDZ\C6H6\PLESTRAN\28-Oct-2015\0\\# hf
 /cc-pvdz gfinput cis(full,nstates=12) 6D\\Benzene singlet\\0,1\C,0,-0.
 2069851582,-0.182179772,0.0000714421\C,0,1.1916738876,-0.1823529436,0.
 0004985861\C,0,1.8910553573,1.0288676731,-0.0000660445\C,0,1.191734986
 8,2.2401336715,-0.0010564977\C,0,-0.206924055,2.2403068493,-0.00148382
 69\C,0,-0.9063055337,1.0290862369,-0.0009191682\H,0,-0.750746176,-1.12
 38955859,0.0005098114\H,0,1.7352854346,-1.124149144,0.0012705069\H,0,2
 .9784784245,1.0289339946,0.0002669247\H,0,1.7354959994,3.1818494841,-0
 .0014954845\H,0,-0.7505356043,3.1821030485,-0.0022553738\H,0,-1.993728
 6031,1.0290199075,-0.0012518757\\Version=ES64L-GDVRevI.03+\State=1-AG\
 HF=-230.7223421\MP2=-231.5407433\EFC=0.\RMSD=3.557e-09\PG=CI [X(C6H6)]
 \\@
 The archive entry for this job was punched.


 TO BEHOLD HARMS OF OUR OWN HANDS DOING,
 WHERE NONE BESIDE US WROUGHT,
 CAUSES SHARP RUING...

                                         SOPHOCLES
 Job cpu time:       0 days  0 hours  0 minutes 17.6 seconds.
 Elapsed time:       0 days  0 hours  0 minutes  8.7 seconds.
 File lengths (MBytes):  RWF=    533 Int=      0 D2E=      0 Chk=      8 Scr=      1
 Normal termination of Gaussian DV at Wed Oct 28 10:02:41 2015.
 Initial command:
 /home/gauss/gdvi03p/gdv/l1.exe "/home/GauScr/Gau-3901.inp" -scrdir="/home/GauScr/"
 Entering Link 1 = /home/gauss/gdvi03p/gdv/l1.exe PID=      3974.
  
 Copyright (c) 1988,1990,1992,1993,1995,1998,2003,2009,2015,
            Gaussian, Inc.  All Rights Reserved.
  
 This is the private, development version of
 the Gaussian(R) DV system of programs. It is based on
 the Gaussian(R) 09 system (copyright 2009, Gaussian, Inc.),
 the Gaussian(R) 03 system (copyright 2003, Gaussian, Inc.),
 the Gaussian(R) 98 system (copyright 1998, Gaussian, Inc.),
 the Gaussian(R) 94 system (copyright 1995, Gaussian, Inc.),
 the Gaussian 92(TM) system (copyright 1992, Gaussian, Inc.),
 the Gaussian 90(TM) system (copyright 1990, Gaussian, Inc.),
 the Gaussian 88(TM) system (copyright 1988, Gaussian, Inc.),
 the Gaussian 86(TM) system (copyright 1986, Carnegie Mellon
 University), and the Gaussian 82(TM) system (copyright 1983,
 Carnegie Mellon University). Gaussian is a federally registered
 trademark of Gaussian, Inc.
  
 This software contains proprietary and confidential information,
 including trade secrets, belonging to Gaussian, Inc.
  
 This software is provided under written license and may be
 used, copied, transmitted, or stored only in accord with that
 written license.
  
 The following legend is applicable only to US Government
 contracts under FAR:
  
                    RESTRICTED RIGHTS LEGEND
  
 Use, reproduction and disclosure by the US Government is
 subject to restrictions as set forth in subparagraphs (a)
 and (c) of the Commercial Computer Software - Restricted
 Rights clause in FAR 52.227-19.
  
 Gaussian, Inc.
 340 Quinnipiac St., Bldg. 40, Wallingford CT 06492
  
  
 ---------------------------------------------------------------
 Warning -- This program may not be used in any manner that
 competes with the business of Gaussian, Inc. or will provide
 assistance to any competitor of Gaussian, Inc.  The licensee
 of this program is prohibited from giving any competitor of
 Gaussian, Inc. access to this program.  By using this program,
 the user acknowledges that Gaussian, Inc. is engaged in the
 business of creating and licensing software in the field of
 computational chemistry and represents and warrants to the
 licensee that it is not a competitor of Gaussian, Inc. and that
 it will not use this program in any manner prohibited above.
 ---------------------------------------------------------------
  

 Cite this work as:
 Gaussian Development Version, Revision I.03+,
 M. J. Frisch, G. W. Trucks, H. B. Schlegel, G. E. Scuseria, 
 M. A. Robb, J. R. Cheeseman, G. Scalmani, V. Barone, B. Mennucci, 
 G. A. Petersson, H. Nakatsuji, M. Caricato, X. Li, H. P. Hratchian, 
 J. Bloino, B. G. Janesko, A. F. Izmaylov, A. Marenich, F. Lipparini, 
 G. Zheng, J. L. Sonnenberg, W. Liang, M. Hada, M. Ehara, K. Toyota, 
 R. Fukuda, J. Hasegawa, M. Ishida, T. Nakajima, Y. Honda, O. Kitao, 
 H. Nakai, T. Vreven, K. Throssell, J. A. Montgomery, Jr., 
 J. E. Peralta, F. Ogliaro, M. Bearpark, J. J. Heyd, E. Brothers, 
 K. N. Kudin, V. N. Staroverov, T. Keith, R. Kobayashi, J. Normand, 
 K. Raghavachari, A. Rendell, J. C. Burant, S. S. Iyengar, J. Tomasi, 
 M. Cossi, N. Rega, J. M. Millam, M. Klene, J. E. Knox, J. B. Cross, 
 V. Bakken, C. Adamo, J. Jaramillo, R. Gomperts, R. E. Stratmann, 
 O. Yazyev, A. J. Austin, R. Cammi, C. Pomelli, J. W. Ochterski, 
 R. L. Martin, K. Morokuma, V. G. Zakrzewski, G. A. Voth, 
 P. Salvador, J. J. Dannenberg, S. Dapprich, P. V. Parandekar, 
 N. J. Mayhall, A. D. Daniels, O. Farkas, J. B. Foresman, 
 J. V. Ortiz, J. Cioslowski, and D. J. Fox, 
 Gaussian, Inc., Wallingford CT, 2014.
 
 *******************************************
 Gaussian DV:  ES64L-GDVRevI.03+  2-May-2015
                 28-Oct-2015 
 *******************************************
 %chk=benz
 %nproc=2
 Will use up to    2 processors via shared memory.
 ------------------------------------------------------------------
 # hf/cc-pvdz geom=check guess=read cis(full,nstates=12,triplet) 6D
 ------------------------------------------------------------------
 1/29=2,38=1,172=1/1;
 2/12=2,40=1/2;
 3/5=16,8=2,11=9,14=-4,25=1,30=1,116=-2/1,2,3,8;
 4/5=1/1;
 5/5=2,38=6/2;
 8/6=1,10=90,108=12/1,4;
 9/41=12,42=3,48=3/14;
 6/7=2,8=2,9=2,10=2/1;
 99/5=1,9=1/99;
 ---------------
 Benzene triplet
 ---------------
 Structure from the checkpoint file:  "benz.chk"
 Charge =  0 Multiplicity = 1
 Z-Matrix found in chk file.
 C,0,-0.2069851582,-0.182179772,0.0000714421
 C,0,1.1916738876,-0.1823529436,0.0004985861
 C,0,1.8910553573,1.0288676731,-0.0000660445
 C,0,1.1917349868,2.2401336715,-0.0010564977
 C,0,-0.206924055,2.2403068493,-0.0014838269
 C,0,-0.9063055337,1.0290862369,-0.0009191682
 H,0,-0.750746176,-1.1238955859,0.0005098114
 H,0,1.7352854346,-1.124149144,0.0012705069
 H,0,2.9784784245,1.0289339946,0.0002669247
 H,0,1.7354959994,3.1818494841,-0.0014954845
 H,0,-0.7505356043,3.1821030485,-0.0022553738
 H,0,-1.9937286031,1.0290199075,-0.0012518757
 Recover connectivity data from disk.
                          Input orientation:                          
 ---------------------------------------------------------------------
 Center     Atomic      Atomic             Coordinates (Angstroms)
 Number     Number       Type             X           Y           Z
 ---------------------------------------------------------------------
      1          6           0       -0.206985   -0.182180    0.000071
      2          6           0        1.191674   -0.182353    0.000499
      3          6           0        1.891055    1.028868   -0.000066
      4          6           0        1.191735    2.240134   -0.001057
      5          6           0       -0.206924    2.240307   -0.001484
      6          6           0       -0.906306    1.029086   -0.000919
      7          1           0       -0.750746   -1.123896    0.000510
      8          1           0        1.735285   -1.124149    0.001271
      9          1           0        2.978478    1.028934    0.000267
     10          1           0        1.735496    3.181849   -0.001495
     11          1           0       -0.750536    3.182103   -0.002256
     12          1           0       -1.993729    1.029020   -0.001252
 ---------------------------------------------------------------------
                    Distance matrix (angstroms):
                    1          2          3          4          5
     1  C    0.000000
     2  C    1.398659   0.000000
     3  C    2.422480   1.398639   0.000000
     4  C    2.797145   2.422487   1.398648   0.000000
     5  C    2.422487   2.797385   2.422623   1.398659   0.000000
     6  C    1.398648   2.422623   2.797361   2.422480   1.398639
     7  H    1.087430   2.158587   3.407859   3.884576   3.407874
     8  H    2.158639   1.087425   2.158645   3.407910   3.884810
     9  H    3.407928   2.158677   1.087423   2.158578   3.407964
    10  H    3.884576   3.407874   2.158595   1.087430   2.158587
    11  H    3.407910   3.884810   3.407995   2.158639   1.087425
    12  H    2.158578   3.407964   3.884784   3.407928   2.158677
                    6          7          8          9         10
     6  C    0.000000
     7  H    2.158595   0.000000
     8  H    3.407995   2.486032   0.000000
     9  H    3.884784   4.306018   2.486221   0.000000
    10  H    3.407859   4.972006   4.306000   2.485971   0.000000
    11  H    2.158645   4.306000   4.972236   4.306006   2.486032
    12  H    1.087423   2.485971   4.306006   4.972207   4.306018
                   11         12
    11  H    0.000000
    12  H    2.486221   0.000000
 Stoichiometry    C6H6
 Framework group  CI[X(C6H6)]
 Deg. of freedom    15
 Full point group                 CI      NOp   2
 Largest Abelian subgroup         CI      NOp   2
 Largest concise Abelian subgroup CI      NOp   2
                         Standard orientation:                         
 ---------------------------------------------------------------------
 Center     Atomic      Atomic             Coordinates (Angstroms)
 Number     Number       Type             X           Y           Z
 ---------------------------------------------------------------------
      1          6           0       -0.699360   -1.211157    0.000564
      2          6           0        0.699299   -1.211330    0.000991
      3          6           0        1.398680   -0.000109    0.000427
      4          6           0        0.699360    1.211157   -0.000564
      5          6           0       -0.699299    1.211330   -0.000991
      6          6           0       -1.398680    0.000109   -0.000427
      7          1           0       -1.243121   -2.152873    0.001002
      8          1           0        1.242911   -2.153126    0.001763
      9          1           0        2.486104   -0.000043    0.000760
     10          1           0        1.243121    2.152873   -0.001002
     11          1           0       -1.242911    2.153126   -0.001763
     12          1           0       -2.486104    0.000043   -0.000760
 ---------------------------------------------------------------------
 Rotational constants (GHZ):      5.6717105      5.6710222      2.8356832
 Standard basis: CC-pVDZ (6D, 7F)
 There are    60 symmetry adapted cartesian basis functions of AG  symmetry.
 There are    60 symmetry adapted cartesian basis functions of AU  symmetry.
 There are    60 symmetry adapted basis functions of AG  symmetry.
 There are    60 symmetry adapted basis functions of AU  symmetry.
   120 basis functions,   240 primitive gaussians,   120 cartesian basis functions
    21 alpha electrons       21 beta electrons
       nuclear repulsion energy       202.9242874114 Hartrees.
 NAtoms=   12 NActive=   12 NUniq=    6 SFac= 4.00D+00 NAtFMM=   60 NAOKFM=F Big=F
 Integral buffers will be    131072 words long.
 Raffenetti 1 integral format.
 Two-electron integral symmetry is turned on.
 One-electron integrals computed using PRISM.
 NBasis=   120 RedAO= T EigKep=  3.42D-04  NBF=    60    60
 NBsUse=   120 1.00D-06 EigRej= -1.00D+00 NBFU=    60    60
 Initial guess from the checkpoint file:  "benz.chk"
 B after Tr=     0.000000    0.000000    0.000000
         Rot=    1.000000    0.000000    0.000000    0.000000 Ang=   0.00 deg.
 Initial guess orbital symmetries:
       Occupied  (AG) (AU) (AU) (AG) (AG) (AU) (AG) (AU) (AU) (AG)
                 (AG) (AG) (AU) (AU) (AU) (AU) (AU) (AG) (AG) (AG)
                 (AG)
       Virtual   (AU) (AU) (AG) (AU) (AU) (AG) (AG) (AU) (AG) (AG)
                 (AG) (AU) (AU) (AG) (AU) (AG) (AU) (AU) (AU) (AU)
                 (AG) (AG) (AG) (AG) (AG) (AU) (AU) (AU) (AU) (AG)
                 (AG) (AG) (AU) (AG) (AU) (AU) (AU) (AG) (AG) (AG)
                 (AG) (AU) (AU) (AG) (AG) (AU) (AU) (AU) (AG) (AG)
                 (AG) (AU) (AU) (AU) (AG) (AG) (AG) (AG) (AU) (AU)
                 (AU) (AU) (AG) (AG) (AU) (AU) (AG) (AG) (AU) (AU)
                 (AU) (AG) (AG) (AG) (AU) (AU) (AG) (AG) (AU) (AU)
                 (AG) (AG) (AG) (AG) (AU) (AU) (AU) (AU) (AG) (AU)
                 (AU) (AU) (AG) (AG) (AG) (AG) (AG) (AU) (AU)
 Requested convergence on RMS density matrix=1.00D-08 within 128 cycles.
 Requested convergence on MAX density matrix=1.00D-06.
 Requested convergence on             energy=1.00D-06.
 No special actions if energy rises.
 SCF Done:  E(RHF) =  -230.722342149     A.U. after    1 cycles
            NFock=  1  Conv=0.92D-09     -V/T= 2.0026
 Range of M.O.s used for correlation:     1   120
 NBasis=   120 NAE=    21 NBE=    21 NFC=     0 NFV=     0
 NROrb=    120 NOA=    21 NOB=    21 NVA=    99 NVB=    99

 **** Warning!!: The largest alpha MO coefficient is  0.11628315D+02

 Semi-Direct transformation.
 ModeAB=           4 MOrb=            21 LenV=      33017944
 LASXX=      5799696 LTotXX=     5799696 LenRXX=    11798997
 LTotAB=     5999301 MaxLAS=     9480240 LenRXY=           0
 NonZer=    17598693 LenScr=    27166720 LnRSAI=     9480240
 LnScr1=    14960640 LExtra=           0 Total=     63406597
 MaxDsk=          -1 SrtSym=           T ITran=            3
 JobTyp=0 Pass  1:  I=   1 to  21.
 (rs|ai) integrals will be sorted in core.
 Spin components of T(2) and E(2):
     alpha-alpha T2 =       0.4186316258D-01 E2=     -0.1069068919D+00
     alpha-beta  T2 =       0.2192782888D+00 E2=     -0.6045873803D+00
     beta-beta   T2 =       0.4186316258D-01 E2=     -0.1069068919D+00
 ANorm=    0.1141492275D+01
 E2 =    -0.8184011642D+00 EUMP2 =    -0.23154074331308D+03
 Orbital symmetries:
       Occupied  (AG) (AU) (AU) (AG) (AG) (AU) (AG) (AU) (AU) (AG)
                 (AG) (AG) (AU) (AU) (AU) (AU) (AU) (AG) (AG) (AG)
                 (AG)
       Virtual   (AU) (AU) (AG) (AU) (AU) (AG) (AG) (AU) (AG) (AG)
                 (AG) (AU) (AU) (AG) (AU) (AG) (AU) (AU) (AU) (AU)
                 (AG) (AG) (AG) (AG) (AG) (AU) (AU) (AU) (AU) (AG)
                 (AG) (AG) (AU) (AG) (AU) (AU) (AU) (AG) (AG) (AG)
                 (AG) (AU) (AU) (AG) (AG) (AU) (AU) (AU) (AG) (AG)
                 (AG) (AU) (AU) (AU) (AG) (AG) (AG) (AG) (AU) (AU)
                 (AU) (AU) (AG) (AG) (AU) (AU) (AG) (AG) (AU) (AU)
                 (AU) (AG) (AG) (AG) (AU) (AU) (AG) (AG) (AU) (AU)
                 (AG) (AG) (AG) (AG) (AU) (AU) (AU) (AU) (AG) (AU)
                 (AU) (AU) (AG) (AG) (AG) (AG) (AG) (AU) (AU)
    48 initial guesses have been made.
 Convergence on wavefunction:    0.001000000000000
 Iteration     1 Dimension    48 NMult     0 NNew     48
 New state      1 was old state      2
 New state      2 was old state      1
 New state      5 was old state     11
 New state      6 was old state     12
 New state      7 was old state      5
 New state      8 was old state      6
 New state      9 was old state     13
 New state     10 was old state      8
 New state     11 was old state      9
 New state     12 was old state     10
 Iteration     2 Dimension    96 NMult    48 NNew     48
 New state     10 was old state     13
 New state     11 was old state     10
 New state     12 was old state     11
 Iteration     3 Dimension   108 NMult    96 NNew     12
 New state     11 was old state     12
 New state     12 was old state     11
 Iteration     4 Dimension   120 NMult   108 NNew     12
 Iteration     5 Dimension   127 NMult   120 NNew      7
 Iteration     6 Dimension   128 NMult   127 NNew      1
 ***********************************************************************
 Excited states from <AA,BB:AA,BB> singles matrix:
 ***********************************************************************
 
 Ground to excited state transition densities written to RWF  633
 Ground to excited state transition electric dipole moments (Au):
       state          X           Y           Z        Dip. S.      Osc.
         1         0.0000      0.0000      0.0000      0.0000      0.0000
         2         0.0000      0.0000      0.0000      0.0000      0.0000
         3         0.0000      0.0000      0.0000      0.0000      0.0000
         4         0.0000      0.0000      0.0000      0.0000      0.0000
         5         0.0000      0.0000      0.0000      0.0000      0.0000
         6         0.0000      0.0000      0.0000      0.0000      0.0000
         7         0.0000      0.0000      0.0000      0.0000      0.0000
         8         0.0000      0.0000      0.0000      0.0000      0.0000
         9         0.0000      0.0000      0.0000      0.0000      0.0000
        10         0.0000      0.0000      0.0000      0.0000      0.0000
        11         0.0000      0.0000      0.0000      0.0000      0.0000
        12         0.0000      0.0000      0.0000      0.0000      0.0000
 Ground to excited state transition velocity dipole moments (Au):
       state          X           Y           Z        Dip. S.      Osc.
         1         0.0000      0.0000      0.0000      0.0000      0.0000
         2         0.0000      0.0000      0.0000      0.0000      0.0000
         3         0.0000      0.0000      0.0000      0.0000      0.0000
         4         0.0000      0.0000      0.0000      0.0000      0.0000
         5         0.0000      0.0000      0.0000      0.0000      0.0000
         6         0.0000      0.0000      0.0000      0.0000      0.0000
         7         0.0000      0.0000      0.0000      0.0000      0.0000
         8         0.0000      0.0000      0.0000      0.0000      0.0000
         9         0.0000      0.0000      0.0000      0.0000      0.0000
        10         0.0000      0.0000      0.0000      0.0000      0.0000
        11         0.0000      0.0000      0.0000      0.0000      0.0000
        12         0.0000      0.0000      0.0000      0.0000      0.0000
 Ground to excited state transition magnetic dipole moments (Au):
       state          X           Y           Z
         1         0.0000      0.0000      0.0000
         2         0.0000      0.0000      0.0000
         3         0.0000      0.0000      0.0000
         4         0.0000      0.0000      0.0000
         5         0.0000      0.0000      0.0000
         6         0.0000      0.0000      0.0000
         7         0.0000      0.0000      0.0000
         8         0.0000      0.0000      0.0000
         9         0.0000      0.0000      0.0000
        10         0.0000      0.0000      0.0000
        11         0.0000      0.0000      0.0000
        12         0.0000      0.0000      0.0000
 Ground to excited state transition velocity quadrupole moments (Au):
       state          XX          YY          ZZ          XY          XZ          YZ
         1         0.0000      0.0000      0.0000      0.0000      0.0000      0.0000
         2         0.0000      0.0000      0.0000      0.0000      0.0000      0.0000
         3         0.0000      0.0000      0.0000      0.0000      0.0000      0.0000
         4         0.0000      0.0000      0.0000      0.0000      0.0000      0.0000
         5         0.0000      0.0000      0.0000      0.0000      0.0000      0.0000
         6         0.0000      0.0000      0.0000      0.0000      0.0000      0.0000
         7         0.0000      0.0000      0.0000      0.0000      0.0000      0.0000
         8         0.0000      0.0000      0.0000      0.0000      0.0000      0.0000
         9         0.0000      0.0000      0.0000      0.0000      0.0000      0.0000
        10         0.0000      0.0000      0.0000      0.0000      0.0000      0.0000
        11         0.0000      0.0000      0.0000      0.0000      0.0000      0.0000
        12         0.0000      0.0000      0.0000      0.0000      0.0000      0.0000
 <0|del|b> * <b|rxdel|0> + <0|del|b> * <b|delr+rdel|0>
 Rotatory Strengths (R) in cgs (10**-40 erg-esu-cm/Gauss)
       state          XX          YY          ZZ    R(velocity)    E-M Angle
         1         0.0000      0.0000      0.0000      0.0000       90.00
         2         0.0000      0.0000      0.0000      0.0000       90.00
         3         0.0000      0.0000      0.0000      0.0000       90.00
         4         0.0000      0.0000      0.0000      0.0000       90.00
         5         0.0000      0.0000      0.0000      0.0000       90.00
         6         0.0000      0.0000      0.0000      0.0000       90.00
         7         0.0000      0.0000      0.0000      0.0000       90.00
         8         0.0000      0.0000      0.0000      0.0000       90.00
         9         0.0000      0.0000      0.0000      0.0000       90.00
        10         0.0000      0.0000      0.0000      0.0000       90.00
        11         0.0000      0.0000      0.0000      0.0000       90.00
        12         0.0000      0.0000      0.0000      0.0000       90.00
 1/2[<0|r|b>*<b|rxdel|0> + (<0|rxdel|b>*<b|r|0>)*]
 Rotatory Strengths (R) in cgs (10**-40 erg-esu-cm/Gauss)
       state          XX          YY          ZZ     R(length)
         1         0.0000      0.0000      0.0000      0.0000
         2         0.0000      0.0000      0.0000      0.0000
         3         0.0000      0.0000      0.0000      0.0000
         4         0.0000      0.0000      0.0000      0.0000
         5         0.0000      0.0000      0.0000      0.0000
         6         0.0000      0.0000      0.0000      0.0000
         7         0.0000      0.0000      0.0000      0.0000
         8         0.0000      0.0000      0.0000      0.0000
         9         0.0000      0.0000      0.0000      0.0000
        10         0.0000      0.0000      0.0000      0.0000
        11         0.0000      0.0000      0.0000      0.0000
        12         0.0000      0.0000      0.0000      0.0000
  1/2[<0|del|b>*<b|r|0> + (<0|r|b>*<b|del|0>)*] (Au)
       state          X           Y           Z        Dip. S.   Osc.(frdel)
         1         0.0000      0.0000      0.0000      0.0000      0.0000
         2         0.0000      0.0000      0.0000      0.0000      0.0000
         3         0.0000      0.0000      0.0000      0.0000      0.0000
         4         0.0000      0.0000      0.0000      0.0000      0.0000
         5         0.0000      0.0000      0.0000      0.0000      0.0000
         6         0.0000      0.0000      0.0000      0.0000      0.0000
         7         0.0000      0.0000      0.0000      0.0000      0.0000
         8         0.0000      0.0000      0.0000      0.0000      0.0000
         9         0.0000      0.0000      0.0000      0.0000      0.0000
        10         0.0000      0.0000      0.0000      0.0000      0.0000
        11         0.0000      0.0000      0.0000      0.0000      0.0000
        12         0.0000      0.0000      0.0000      0.0000      0.0000

 Excitation energies and oscillator strengths:
 
 Excited State   1:      Triplet-AU     3.3527 eV  369.81 nm  f=0.0000  <S**2>=2.000
      17 -> 30         0.16909
      20 -> 22        -0.44936
      20 -> 23        -0.16749
      21 -> 22        -0.16756
      21 -> 23         0.44942
 This state for optimization and/or second-order correction.
 Total Energy, E(CIS) =  -230.599134375    
 Copying the excited state density for this state as the 1-particle RhoCI density.
 
 Excited State   2:      Triplet-AU     4.9533 eV  250.31 nm  f=0.0000  <S**2>=2.000
      20 -> 22         0.20284
      20 -> 23        -0.45411
      21 -> 22         0.45442
      21 -> 23         0.20299
 
 Excited State   3:      Triplet-AU     4.9534 eV  250.30 nm  f=0.0000  <S**2>=2.000
      20 -> 22         0.45433
      20 -> 23         0.20287
      21 -> 22        -0.20295
      21 -> 23         0.45420
 
 Excited State   4:      Triplet-AU     5.6377 eV  219.92 nm  f=0.0000  <S**2>=2.000
      20 -> 22        -0.17403
      20 -> 23         0.46700
      21 -> 22         0.46664
      21 -> 23         0.17401
 
 Excited State   5:      Triplet-AG     7.8032 eV  158.89 nm  f=0.0000  <S**2>=2.000
      17 -> 22         0.53769
      17 -> 23        -0.20671
      20 -> 30        -0.29375
      21 -> 30        -0.25967
 
 Excited State   6:      Triplet-AG     7.8032 eV  158.89 nm  f=0.0000  <S**2>=2.000
      17 -> 22         0.20672
      17 -> 23         0.53768
      20 -> 30        -0.25966
      21 -> 30         0.29378
 
 Excited State   7:      Triplet-AG     8.3125 eV  149.15 nm  f=0.0000  <S**2>=2.000
      17 -> 26         0.10745
      20 -> 27         0.10346
      21 -> 24         0.66729
      21 -> 28         0.10347
 
 Excited State   8:      Triplet-AG     8.3129 eV  149.15 nm  f=0.0000  <S**2>=2.000
      17 -> 25         0.10746
      20 -> 24         0.66728
      20 -> 28        -0.10345
      21 -> 27         0.10349
 
 Excited State   9:      Triplet-AU     8.9059 eV  139.22 nm  f=0.0000  <S**2>=2.000
      17 -> 24        -0.24781
      18 -> 22        -0.11753
      19 -> 23         0.11781
      20 -> 25        -0.34058
      20 -> 26        -0.28469
      21 -> 25         0.28485
      21 -> 26        -0.34073
 
 Excited State  10:      Triplet-AU     9.0258 eV  137.37 nm  f=0.0000  <S**2>=2.000
      14 -> 30         0.17564
      18 -> 23         0.46145
      19 -> 22         0.46397
 
 Excited State  11:      Triplet-AU     9.0911 eV  136.38 nm  f=0.0000  <S**2>=2.000
      16 -> 30        -0.15059
      18 -> 22         0.41622
      18 -> 23         0.22308
      19 -> 22        -0.22294
      19 -> 23         0.42533
 
 Excited State  12:      Triplet-AU     9.1063 eV  136.15 nm  f=0.0000  <S**2>=2.000
      13 -> 30         0.12108
      18 -> 22         0.46949
      19 -> 23        -0.46324
 SavETr:  write IOETrn=   770 NScale= 10 NData=  16 NLR=1 NState=   12 LETran=     226.

 **********************************************************************

            Population analysis using the SCF density.

 **********************************************************************

 Orbital symmetries:
       Occupied  (AG) (AU) (AU) (AG) (AG) (AU) (AG) (AU) (AU) (AG)
                 (AG) (AG) (AU) (AU) (AU) (AU) (AU) (AG) (AG) (AG)
                 (AG)
       Virtual   (AU) (AU) (AG) (AU) (AU) (AG) (AG) (AU) (AG) (AG)
                 (AG) (AU) (AU) (AG) (AU) (AG) (AU) (AU) (AU) (AU)
                 (AG) (AG) (AG) (AG) (AG) (AU) (AU) (AU) (AU) (AG)
                 (AG) (AG) (AU) (AG) (AU) (AU) (AU) (AG) (AG) (AG)
                 (AG) (AU) (AU) (AG) (AG) (AU) (AU) (AU) (AG) (AG)
                 (AG) (AU) (AU) (AU) (AG) (AG) (AG) (AG) (AU) (AU)
                 (AU) (AU) (AG) (AG) (AU) (AU) (AG) (AG) (AU) (AU)
                 (AU) (AG) (AG) (AG) (AU) (AU) (AG) (AG) (AU) (AU)
                 (AG) (AG) (AG) (AG) (AU) (AU) (AU) (AU) (AG) (AU)
                 (AU) (AU) (AG) (AG) (AG) (AG) (AG) (AU) (AU)
 The electronic state is 1-AG.
 Alpha  occ. eigenvalues --  -11.24251 -11.24195 -11.24195 -11.24076 -11.24075
 Alpha  occ. eigenvalues --  -11.24017  -1.14565  -1.01118  -1.01117  -0.82018
 Alpha  occ. eigenvalues --   -0.82017  -0.70331  -0.64065  -0.61361  -0.58326
 Alpha  occ. eigenvalues --   -0.58322  -0.49727  -0.49033  -0.49031  -0.33284
 Alpha  occ. eigenvalues --   -0.33283
 Alpha virt. eigenvalues --    0.13631   0.13631   0.18153   0.21959   0.21959
 Alpha virt. eigenvalues --    0.25507   0.25508   0.27124   0.34880   0.43575
 Alpha virt. eigenvalues --    0.43577   0.46721   0.46722   0.58335   0.58583
 Alpha virt. eigenvalues --    0.66151   0.66862   0.68100   0.71310   0.71311
 Alpha virt. eigenvalues --    0.73257   0.73257   0.73362   0.73363   0.74059
 Alpha virt. eigenvalues --    0.82268   0.82269   0.84356   0.84357   0.88334
 Alpha virt. eigenvalues --    0.88335   0.90907   0.97576   0.98204   1.04968
 Alpha virt. eigenvalues --    1.08000   1.08001   1.12172   1.15057   1.18494
 Alpha virt. eigenvalues --    1.18494   1.24056   1.24056   1.24340   1.24344
 Alpha virt. eigenvalues --    1.28942   1.31697   1.31699   1.46809   1.51258
 Alpha virt. eigenvalues --    1.51262   1.71817   1.74051   1.74053   1.76448
 Alpha virt. eigenvalues --    1.78728   1.85616   1.85620   1.88283   1.88290
 Alpha virt. eigenvalues --    1.89815   1.93023   1.95070   1.95072   1.95378
 Alpha virt. eigenvalues --    1.95386   2.08631   2.08636   2.11761   2.14327
 Alpha virt. eigenvalues --    2.14332   2.15100   2.15102   2.16598   2.26204
 Alpha virt. eigenvalues --    2.26206   2.27374   2.27375   2.32259   2.49379
 Alpha virt. eigenvalues --    2.55552   2.64999   2.72936   2.72937   2.75774
 Alpha virt. eigenvalues --    2.75774   2.81846   2.81853   2.86997   2.99799
 Alpha virt. eigenvalues --    3.10479   3.10482   3.12442   3.16943   3.16947
 Alpha virt. eigenvalues --    3.62821   3.62823   3.82576   4.49744
          Condensed to atoms (all electrons):
               1          2          3          4          5          6
     1  C    4.699781   0.549217  -0.050541  -0.034985  -0.050539   0.549226
     2  C    0.549217   4.699770   0.549183  -0.050539  -0.034968  -0.050524
     3  C   -0.050541   0.549183   4.699759   0.549226  -0.050524  -0.034968
     4  C   -0.034985  -0.050539   0.549226   4.699781   0.549217  -0.050541
     5  C   -0.050539  -0.034968  -0.050524   0.549217   4.699770   0.549183
     6  C    0.549226  -0.050524  -0.034968  -0.050541   0.549183   4.699759
     7  H    0.423315  -0.036026   0.006007  -0.000464   0.006007  -0.036023
     8  H   -0.036016   0.423322  -0.036027   0.006005  -0.000464   0.006005
     9  H    0.006005  -0.036029   0.423322  -0.036015   0.006006  -0.000464
    10  H   -0.000464   0.006007  -0.036023   0.423315  -0.036026   0.006007
    11  H    0.006005  -0.000464   0.006005  -0.036016   0.423322  -0.036027
    12  H   -0.036015   0.006006  -0.000464   0.006005  -0.036029   0.423322
               7          8          9         10         11         12
     1  C    0.423315  -0.036016   0.006005  -0.000464   0.006005  -0.036015
     2  C   -0.036026   0.423322  -0.036029   0.006007  -0.000464   0.006006
     3  C    0.006007  -0.036027   0.423322  -0.036023   0.006005  -0.000464
     4  C   -0.000464   0.006005  -0.036015   0.423315  -0.036016   0.006005
     5  C    0.006007  -0.000464   0.006006  -0.036026   0.423322  -0.036029
     6  C   -0.036023   0.006005  -0.000464   0.006007  -0.036027   0.423322
     7  H    0.629386  -0.008425  -0.000174   0.000038  -0.000174  -0.008427
     8  H   -0.008425   0.629360  -0.008421  -0.000174   0.000038  -0.000174
     9  H   -0.000174  -0.008421   0.629366  -0.008427  -0.000174   0.000038
    10  H    0.000038  -0.000174  -0.008427   0.629386  -0.008425  -0.000174
    11  H   -0.000174   0.000038  -0.000174  -0.008425   0.629360  -0.008421
    12  H   -0.008427  -0.000174   0.000038  -0.000174  -0.008421   0.629366
 Mulliken charges:
               1
     1  C   -0.024990
     2  C   -0.024955
     3  C   -0.024955
     4  C   -0.024990
     5  C   -0.024955
     6  C   -0.024955
     7  H    0.024961
     8  H    0.024971
     9  H    0.024968
    10  H    0.024961
    11  H    0.024971
    12  H    0.024968
 Sum of Mulliken charges =   0.00000
 Mulliken charges with hydrogens summed into heavy atoms:
               1
     1  C   -0.000029
     2  C    0.000016
     3  C    0.000013
     4  C   -0.000029
     5  C    0.000016
     6  C    0.000013
 Electronic spatial extent (au):  <R**2>=            461.1901
 Charge=              0.0000 electrons
 Dipole moment (field-independent basis, Debye):
    X=              0.0000    Y=              0.0000    Z=              0.0000  Tot=              0.0000
 Quadrupole moment (field-independent basis, Debye-Ang):
   XX=            -31.7387   YY=            -31.7392   ZZ=            -40.4594
   XY=             -0.0004   XZ=              0.0027   YZ=             -0.0056
 Traceless Quadrupole moment (field-independent basis, Debye-Ang):
   XX=              2.9071   YY=              2.9065   ZZ=             -5.8136
   XY=             -0.0004   XZ=              0.0027   YZ=             -0.0056
 Octapole moment (field-independent basis, Debye-Ang**2):
  XXX=              0.0000  YYY=              0.0000  ZZZ=              0.0000  XYY=              0.0000
  XXY=              0.0000  XXZ=              0.0000  XZZ=              0.0000  YZZ=              0.0000
  YYZ=              0.0000  XYZ=              0.0000
 Hexadecapole moment (field-independent basis, Debye-Ang**3):
 XXXX=           -271.1903 YYYY=           -271.1823 ZZZZ=            -46.4543 XXXY=              0.0075
 XXXZ=             -0.0246 YYYX=              0.0001 YYYZ=              0.0518 ZZZX=             -0.0440
 ZZZY=              0.0925 XXYY=            -90.3972 XXZZ=            -63.4887 YYZZ=            -63.4865
 XXYZ=              0.0173 YYXZ=             -0.0082 ZZXY=              0.0020
 N-N= 2.029242874114D+02 E-N=-9.423701327051D+02  KE= 2.301250421239D+02
 Symmetry AG   KE= 1.160285479104D+02
 Symmetry AU   KE= 1.140964942135D+02
 Unable to Open any file for archive entry.
 1\1\GINC-MEDUSA\SP\RCIS-Full\CC-pVDZ\C6H6\PLESTRAN\28-Oct-2015\0\\# hf
 /cc-pvdz geom=check guess=read cis(full,nstates=12,triplet) 6D\\Benzen
 e triplet\\0,1\C,0,-0.2069851582,-0.182179772,0.0000714421\C,0,1.19167
 38876,-0.1823529436,0.0004985861\C,0,1.8910553573,1.0288676731,-0.0000
 660445\C,0,1.1917349868,2.2401336715,-0.0010564977\C,0,-0.206924055,2.
 2403068493,-0.0014838269\C,0,-0.9063055337,1.0290862369,-0.0009191682\
 H,0,-0.750746176,-1.1238955859,0.0005098114\H,0,1.7352854346,-1.124149
 144,0.0012705069\H,0,2.9784784245,1.0289339946,0.0002669247\H,0,1.7354
 959994,3.1818494841,-0.0014954845\H,0,-0.7505356043,3.1821030485,-0.00
 22553738\H,0,-1.9937286031,1.0290199075,-0.0012518757\\Version=ES64L-G
 DVRevI.03+\State=1-AG\HF=-230.7223421\MP2=-231.5407433\EFC=0.\RMSD=9.2
 20e-10\PG=CI [X(C6H6)]\\@
 The archive entry for this job was punched.


 IF NO USE IS MADE OF THE LABOR OF PAST AGES,
 THE WORLD MUST REMAIN ALWAYS IN THE INFANCY OF KNOWLEDGE.

                          -- CICERO
 Job cpu time:       0 days  0 hours  0 minutes 11.8 seconds.
 Elapsed time:       0 days  0 hours  0 minutes  5.8 seconds.
 File lengths (MBytes):  RWF=    533 Int=      0 D2E=      0 Chk=      8 Scr=      1
 Normal termination of Gaussian DV at Wed Oct 28 10:02:47 2015.
