 Entering Gaussian System, Link 0=gdv
 Input=benzene_sto3g_TD.com
 Output=benzene_sto3g_TD.log
 Initial command:
 /home/gauss/gdvi03p/gdv/l1.exe "/home/GauScr/Gau-10786.inp" -scrdir="/home/GauScr/"
 Entering Link 1 = /home/gauss/gdvi03p/gdv/l1.exe PID=     10787.
  
 Copyright (c) 1988,1990,1992,1993,1995,1998,2003,2009,2015,
            Gaussian, Inc.  All Rights Reserved.
  
 This is the private, development version of
 the Gaussian(R) DV system of programs. It is based on
 the Gaussian(R) 09 system (copyright 2009, Gaussian, Inc.),
 the Gaussian(R) 03 system (copyright 2003, Gaussian, Inc.),
 the Gaussian(R) 98 system (copyright 1998, Gaussian, Inc.),
 the Gaussian(R) 94 system (copyright 1995, Gaussian, Inc.),
 the Gaussian 92(TM) system (copyright 1992, Gaussian, Inc.),
 the Gaussian 90(TM) system (copyright 1990, Gaussian, Inc.),
 the Gaussian 88(TM) system (copyright 1988, Gaussian, Inc.),
 the Gaussian 86(TM) system (copyright 1986, Carnegie Mellon
 University), and the Gaussian 82(TM) system (copyright 1983,
 Carnegie Mellon University). Gaussian is a federally registered
 trademark of Gaussian, Inc.
  
 This software contains proprietary and confidential information,
 including trade secrets, belonging to Gaussian, Inc.
  
 This software is provided under written license and may be
 used, copied, transmitted, or stored only in accord with that
 written license.
  
 The following legend is applicable only to US Government
 contracts under FAR:
  
                    RESTRICTED RIGHTS LEGEND
  
 Use, reproduction and disclosure by the US Government is
 subject to restrictions as set forth in subparagraphs (a)
 and (c) of the Commercial Computer Software - Restricted
 Rights clause in FAR 52.227-19.
  
 Gaussian, Inc.
 340 Quinnipiac St., Bldg. 40, Wallingford CT 06492
  
  
 ---------------------------------------------------------------
 Warning -- This program may not be used in any manner that
 competes with the business of Gaussian, Inc. or will provide
 assistance to any competitor of Gaussian, Inc.  The licensee
 of this program is prohibited from giving any competitor of
 Gaussian, Inc. access to this program.  By using this program,
 the user acknowledges that Gaussian, Inc. is engaged in the
 business of creating and licensing software in the field of
 computational chemistry and represents and warrants to the
 licensee that it is not a competitor of Gaussian, Inc. and that
 it will not use this program in any manner prohibited above.
 ---------------------------------------------------------------
  

 Cite this work as:
 Gaussian Development Version, Revision I.03+,
 M. J. Frisch, G. W. Trucks, H. B. Schlegel, G. E. Scuseria, 
 M. A. Robb, J. R. Cheeseman, G. Scalmani, V. Barone, B. Mennucci, 
 G. A. Petersson, H. Nakatsuji, M. Caricato, X. Li, H. P. Hratchian, 
 J. Bloino, B. G. Janesko, A. F. Izmaylov, A. Marenich, F. Lipparini, 
 G. Zheng, J. L. Sonnenberg, W. Liang, M. Hada, M. Ehara, K. Toyota, 
 R. Fukuda, J. Hasegawa, M. Ishida, T. Nakajima, Y. Honda, O. Kitao, 
 H. Nakai, T. Vreven, K. Throssell, J. A. Montgomery, Jr., 
 J. E. Peralta, F. Ogliaro, M. Bearpark, J. J. Heyd, E. Brothers, 
 K. N. Kudin, V. N. Staroverov, T. Keith, R. Kobayashi, J. Normand, 
 K. Raghavachari, A. Rendell, J. C. Burant, S. S. Iyengar, J. Tomasi, 
 M. Cossi, N. Rega, J. M. Millam, M. Klene, J. E. Knox, J. B. Cross, 
 V. Bakken, C. Adamo, J. Jaramillo, R. Gomperts, R. E. Stratmann, 
 O. Yazyev, A. J. Austin, R. Cammi, C. Pomelli, J. W. Ochterski, 
 R. L. Martin, K. Morokuma, V. G. Zakrzewski, G. A. Voth, 
 P. Salvador, J. J. Dannenberg, S. Dapprich, P. V. Parandekar, 
 N. J. Mayhall, A. D. Daniels, O. Farkas, J. B. Foresman, 
 J. V. Ortiz, J. Cioslowski, and D. J. Fox, 
 Gaussian, Inc., Wallingford CT, 2014.
 
 *******************************************
 Gaussian DV:  ES64L-GDVRevI.03+  2-May-2015
                 26-Oct-2015 
 *******************************************
 -------------------------------------------------------------
 # hf/sto-3G gfinput pop=full nosymm td(full,nstates=12,50-50)
 -------------------------------------------------------------
 1/38=1,172=1/1;
 2/12=2,15=1,17=6,18=5,40=1/2;
 3/6=3,11=9,24=10,25=1,30=1/1,2,3,8;
 4//1;
 5/5=2,38=5/2;
 8/6=1,10=90,108=12/1,4;
 9/41=12,42=3,48=2,70=2/14;
 6/7=3/1;
 99/5=1,9=1/99;
 --------------
 Benzene STO-3G
 --------------
 Symbolic Z-matrix:
 Charge =  0 Multiplicity = 1
 C                    -0.20699  -0.18218   0.00007 
 C                     1.19167  -0.18235   0.0005 
 C                     1.89106   1.02887  -0.00007 
 C                     1.19173   2.24013  -0.00106 
 C                    -0.20692   2.24031  -0.00148 
 C                    -0.90631   1.02909  -0.00092 
 H                    -0.75075  -1.1239    0.00051 
 H                     1.73529  -1.12415   0.00127 
 H                     2.97848   1.02893   0.00027 
 H                     1.7355    3.18185  -0.0015 
 H                    -0.75054   3.1821   -0.00226 
 H                    -1.99373   1.02902  -0.00125 
 
                          Input orientation:                          
 ---------------------------------------------------------------------
 Center     Atomic      Atomic             Coordinates (Angstroms)
 Number     Number       Type             X           Y           Z
 ---------------------------------------------------------------------
      1          6           0       -0.206985   -0.182180    0.000071
      2          6           0        1.191674   -0.182353    0.000499
      3          6           0        1.891055    1.028868   -0.000066
      4          6           0        1.191735    2.240134   -0.001056
      5          6           0       -0.206924    2.240307   -0.001484
      6          6           0       -0.906306    1.029086   -0.000919
      7          1           0       -0.750746   -1.123896    0.000510
      8          1           0        1.735285   -1.124149    0.001271
      9          1           0        2.978478    1.028934    0.000267
     10          1           0        1.735496    3.181849   -0.001495
     11          1           0       -0.750536    3.182103   -0.002255
     12          1           0       -1.993729    1.029020   -0.001252
 ---------------------------------------------------------------------
                    Distance matrix (angstroms):
                    1          2          3          4          5
     1  C    0.000000
     2  C    1.398659   0.000000
     3  C    2.422480   1.398639   0.000000
     4  C    2.797145   2.422487   1.398648   0.000000
     5  C    2.422487   2.797385   2.422623   1.398659   0.000000
     6  C    1.398648   2.422623   2.797361   2.422480   1.398639
     7  H    1.087430   2.158587   3.407859   3.884576   3.407874
     8  H    2.158639   1.087425   2.158645   3.407910   3.884810
     9  H    3.407928   2.158677   1.087423   2.158578   3.407964
    10  H    3.884576   3.407874   2.158595   1.087430   2.158587
    11  H    3.407910   3.884810   3.407995   2.158639   1.087425
    12  H    2.158578   3.407964   3.884784   3.407928   2.158677
                    6          7          8          9         10
     6  C    0.000000
     7  H    2.158595   0.000000
     8  H    3.407995   2.486032   0.000000
     9  H    3.884784   4.306018   2.486221   0.000000
    10  H    3.407859   4.972006   4.306000   2.485971   0.000000
    11  H    2.158645   4.306000   4.972236   4.306006   2.486032
    12  H    1.087423   2.485971   4.306006   4.972207   4.306018
                   11         12
    11  H    0.000000
    12  H    2.486221   0.000000
 Symmetry turned off by external request.
 Stoichiometry    C6H6
 Framework group  CI[X(C6H6)]
 Deg. of freedom    15
 Full point group                 CI      NOp   2
 Rotational constants (GHZ):      5.6717105      5.6710222      2.8356832
 Standard basis: STO-3G (5D, 7F)
 AO basis set in the form of general basis input (Overlap normalization):
      1 0
 S   3 1.00       0.000000000000
      0.7161683735D+02  0.1543289673D+00
      0.1304509632D+02  0.5353281423D+00
      0.3530512160D+01  0.4446345422D+00
 SP   3 1.00       0.000000000000
      0.2941249355D+01 -0.9996722919D-01  0.1559162750D+00
      0.6834830964D+00  0.3995128261D+00  0.6076837186D+00
      0.2222899159D+00  0.7001154689D+00  0.3919573931D+00
 ****
      2 0
 S   3 1.00       0.000000000000
      0.7161683735D+02  0.1543289673D+00
      0.1304509632D+02  0.5353281423D+00
      0.3530512160D+01  0.4446345422D+00
 SP   3 1.00       0.000000000000
      0.2941249355D+01 -0.9996722919D-01  0.1559162750D+00
      0.6834830964D+00  0.3995128261D+00  0.6076837186D+00
      0.2222899159D+00  0.7001154689D+00  0.3919573931D+00
 ****
      3 0
 S   3 1.00       0.000000000000
      0.7161683735D+02  0.1543289673D+00
      0.1304509632D+02  0.5353281423D+00
      0.3530512160D+01  0.4446345422D+00
 SP   3 1.00       0.000000000000
      0.2941249355D+01 -0.9996722919D-01  0.1559162750D+00
      0.6834830964D+00  0.3995128261D+00  0.6076837186D+00
      0.2222899159D+00  0.7001154689D+00  0.3919573931D+00
 ****
      4 0
 S   3 1.00       0.000000000000
      0.7161683735D+02  0.1543289673D+00
      0.1304509632D+02  0.5353281423D+00
      0.3530512160D+01  0.4446345422D+00
 SP   3 1.00       0.000000000000
      0.2941249355D+01 -0.9996722919D-01  0.1559162750D+00
      0.6834830964D+00  0.3995128261D+00  0.6076837186D+00
      0.2222899159D+00  0.7001154689D+00  0.3919573931D+00
 ****
      5 0
 S   3 1.00       0.000000000000
      0.7161683735D+02  0.1543289673D+00
      0.1304509632D+02  0.5353281423D+00
      0.3530512160D+01  0.4446345422D+00
 SP   3 1.00       0.000000000000
      0.2941249355D+01 -0.9996722919D-01  0.1559162750D+00
      0.6834830964D+00  0.3995128261D+00  0.6076837186D+00
      0.2222899159D+00  0.7001154689D+00  0.3919573931D+00
 ****
      6 0
 S   3 1.00       0.000000000000
      0.7161683735D+02  0.1543289673D+00
      0.1304509632D+02  0.5353281423D+00
      0.3530512160D+01  0.4446345422D+00
 SP   3 1.00       0.000000000000
      0.2941249355D+01 -0.9996722919D-01  0.1559162750D+00
      0.6834830964D+00  0.3995128261D+00  0.6076837186D+00
      0.2222899159D+00  0.7001154689D+00  0.3919573931D+00
 ****
      7 0
 S   3 1.00       0.000000000000
      0.3425250914D+01  0.1543289673D+00
      0.6239137298D+00  0.5353281423D+00
      0.1688554040D+00  0.4446345422D+00
 ****
      8 0
 S   3 1.00       0.000000000000
      0.3425250914D+01  0.1543289673D+00
      0.6239137298D+00  0.5353281423D+00
      0.1688554040D+00  0.4446345422D+00
 ****
      9 0
 S   3 1.00       0.000000000000
      0.3425250914D+01  0.1543289673D+00
      0.6239137298D+00  0.5353281423D+00
      0.1688554040D+00  0.4446345422D+00
 ****
     10 0
 S   3 1.00       0.000000000000
      0.3425250914D+01  0.1543289673D+00
      0.6239137298D+00  0.5353281423D+00
      0.1688554040D+00  0.4446345422D+00
 ****
     11 0
 S   3 1.00       0.000000000000
      0.3425250914D+01  0.1543289673D+00
      0.6239137298D+00  0.5353281423D+00
      0.1688554040D+00  0.4446345422D+00
 ****
     12 0
 S   3 1.00       0.000000000000
      0.3425250914D+01  0.1543289673D+00
      0.6239137298D+00  0.5353281423D+00
      0.1688554040D+00  0.4446345422D+00
 ****

    36 basis functions,   108 primitive gaussians,    36 cartesian basis functions
    21 alpha electrons       21 beta electrons
       nuclear repulsion energy       202.9242874433 Hartrees.
 NAtoms=   12 NActive=   12 NUniq=   12 SFac= 1.00D+00 NAtFMM=   60 NAOKFM=F Big=F
 Integral buffers will be    131072 words long.
 Raffenetti 1 integral format.
 Two-electron integral symmetry is turned off.
 One-electron integrals computed using PRISM.
 NBasis=    36 RedAO= T EigKep=  1.73D-01  NBF=    36
 NBsUse=    36 1.00D-06 EigRej= -1.00D+00 NBFU=    36
 ExpMin= 1.69D-01 ExpMax= 7.16D+01 ExpMxC= 7.16D+01 IAcc=1 IRadAn=         1 AccDes= 0.00D+00
 Harris functional with IExCor=  205 and IRadAn=       1 diagonalized for initial guess.
 HarFok:  IExCor=  205 AccDes= 0.00D+00 IRadAn=         1 IDoV= 1 UseB2=F ITyADJ=14
 ICtDFT=  3500011 ScaDFX=  1.000000  1.000000  1.000000  1.000000
 FoFCou: FMM=F IPFlag=           0 FMFlag=      100000 FMFlg1=           0
         NFxFlg=           0 DoJE=T BraDBF=F KetDBF=T FulRan=T
         wScrn=  0.000000 ICntrl=       500 IOpCl=  0 I1Cent=   200000004 NGrid=           0
         NMat0=    1 NMatS0=      1 NMatT0=    0 NMatD0=    1 NMtDS0=    0 NMtDT0=    0
 Symmetry not used in FoFCou.
 Keep R1 ints in memory in canonical form, NReq=1044461.
 Requested convergence on RMS density matrix=1.00D-08 within 128 cycles.
 Requested convergence on MAX density matrix=1.00D-06.
 Requested convergence on             energy=1.00D-06.
 No special actions if energy rises.
 SCF Done:  E(RHF) =  -227.890236622     A.U. after    8 cycles
            NFock=  8  Conv=0.14D-08     -V/T= 2.0087
 Range of M.O.s used for correlation:     1    36
 NBasis=    36 NAE=    21 NBE=    21 NFC=     0 NFV=     0
 NROrb=     36 NOA=    21 NOB=    21 NVA=    15 NVB=    15
 Semi-Direct transformation.
 ModeAB=           2 MOrb=            21 LenV=      33402532
 LASXX=       209580 LTotXX=      209580 LenRXX=      209580
 LTotAB=      253071 MaxLAS=      503496 LenRXY=      503496
 NonZer=      523908 LenScr=     1570816 LnRSAI=           0
 LnScr1=           0 LExtra=           0 Total=      2283892
 MaxDsk=          -1 SrtSym=           F ITran=            3
 JobTyp=0 Pass  1:  I=   1 to  21.
 (rs|ai) integrals will be sorted in core.
 Spin components of T(2) and E(2):
     alpha-alpha T2 =       0.1760448671D-01 E2=     -0.3599683668D-01
     alpha-beta  T2 =       0.1310491863D+00 E2=     -0.2805701232D+00
     beta-beta   T2 =       0.1760448671D-01 E2=     -0.3599683668D-01
 ANorm=    0.1079934331D+01
 E2 =    -0.3525637965D+00 EUMP2 =    -0.22824280041881D+03
    96 initial guesses have been made.
 Convergence on wavefunction:    0.001000000000000
 Iteration     1 Dimension    96 NMult     0 NNew     96
 New state      1 was old state      4
 New state      2 was old state      6
 New state      3 was old state      2
 New state      4 was old state      8
 New state      5 was old state      1
 New state      6 was old state     18
 New state      7 was old state     20
 New state      8 was old state      3
 New state      9 was old state     10
 New state     10 was old state      9
 New state     11 was old state     12
 New state     12 was old state     16
 New state     13 was old state     14
 New state     14 was old state     11
 New state     16 was old state      5
 New state     17 was old state      7
 New state     18 was old state     13
 New state     19 was old state     34
 New state     20 was old state     36
 New state     21 was old state     33
 New state     22 was old state     35
 New state     23 was old state     28
 New state     24 was old state     29
 New state     25 was old state     17
 New state     26 was old state     19
 New state     27 was old state     32
 New state     28 was old state     30
 New state     29 was old state     31
 New state     30 was old state     27
 New state     31 was old state     22
 New state     32 was old state     24
 New state     33 was old state     26
 New state     34 was old state     25
 New state     35 was old state     21
 New state     36 was old state     23
 New state     37 was old state     58
 New state     39 was old state     40
 New state     40 was old state     57
 New state     41 was old state     42
 New state     42 was old state     44
 New state     43 was old state     41
 New state     44 was old state     43
 New state     45 was old state     50
 New state     46 was old state     52
 New state     47 was old state     37
 New state     48 was old state     39
 Vector  23 SDiff=1.32D+00 TDiff=1.39D+00 assumed to be singlet.
 Vector  47 SDiff=1.35D+00 TDiff=1.33D+00 assumed to be triplet.
 Iteration     2 Dimension   144 NMult    96 NNew     48
 New state      6 was old state      8
 New state      7 was old state      6
 New state      8 was old state      7
 New state     10 was old state     16
 New state     11 was old state     17
 New state     12 was old state     10
 New state     13 was old state     11
 New state     14 was old state     12
 New state     15 was old state     13
 New state     16 was old state     14
 New state     17 was old state     15
 New state     23 was old state     25
 Iteration     3 Dimension   189 NMult   144 NNew     45
 Iteration     4 Dimension   225 NMult   189 NNew     36
 Iteration     5 Dimension   229 NMult   225 NNew      4
 ***********************************************************************
 Excited states from <AA,BB:AA,BB> singles matrix:
 ***********************************************************************
 
 Ground to excited state transition densities written to RWF  633
 Ground to excited state transition electric dipole moments (Au):
       state          X           Y           Z        Dip. S.      Osc.
         1         0.0000      0.0000      0.0000      0.0000      0.0000
         2         0.0000      0.0000      0.0000      0.0000      0.0000
         3         0.0000      0.0000      0.0000      0.0000      0.0000
         4         0.0000      0.0000      0.0000      0.0000      0.0000
         5        -0.0002      0.0001      0.0000      0.0000      0.0000
         6         0.0002      0.0001      0.0000      0.0000      0.0000
         7         0.0000      0.0000      0.0000      0.0000      0.0000
         8         0.0000      0.0000      0.0000      0.0000      0.0000
         9         0.0000      0.0000      0.0000      0.0000      0.0000
        10         1.4892      1.0735     -0.0002      3.3701      0.8002
        11        -1.0736      1.4892     -0.0013      3.3703      0.8003
        12         0.0000      0.0000      0.0000      0.0000      0.0000
        13         0.0000      0.0000      0.0000      0.0000      0.0000
        14         0.0000      0.0000      0.0000      0.0000      0.0000
        15         0.0000      0.0000      0.0000      0.0000      0.0000
        16         0.0000      0.0000     -0.0001      0.0000      0.0000
        17         0.0000      0.0000      0.0000      0.0000      0.0000
        18         0.0000      0.0001      0.1270      0.0161      0.0044
        19         0.0000      0.0000      0.0000      0.0000      0.0000
        20         0.0000      0.0000      0.0000      0.0000      0.0000
        21         0.0000      0.0000      0.0000      0.0000      0.0000
        22         0.0000      0.0000      0.0000      0.0000      0.0000
        23         0.0000      0.0000      0.0000      0.0000      0.0000
        24         0.0000      0.0000      0.0000      0.0000      0.0000
 Ground to excited state transition velocity dipole moments (Au):
       state          X           Y           Z        Dip. S.      Osc.
         1         0.0000      0.0000      0.0000      0.0000      0.0000
         2         0.0000      0.0000      0.0000      0.0000      0.0000
         3         0.0000      0.0000      0.0000      0.0000      0.0000
         4         0.0000      0.0000      0.0000      0.0000      0.0000
         5         0.0000      0.0000      0.0000      0.0000      0.0000
         6         0.0000      0.0000      0.0000      0.0000      0.0000
         7         0.0000      0.0000      0.0000      0.0000      0.0000
         8         0.0000      0.0000      0.0000      0.0000      0.0000
         9         0.0000      0.0000      0.0000      0.0000      0.0000
        10        -0.3040     -0.2191      0.0000      0.1404      0.2629
        11         0.2191     -0.3040      0.0003      0.1404      0.2629
        12         0.0000      0.0000      0.0000      0.0000      0.0000
        13         0.0000      0.0000      0.0000      0.0000      0.0000
        14         0.0000      0.0000      0.0000      0.0000      0.0000
        15         0.0000      0.0000      0.0000      0.0000      0.0000
        16         0.0000      0.0000      0.0000      0.0000      0.0000
        17         0.0000      0.0000      0.0000      0.0000      0.0000
        18         0.0000      0.0000     -0.0509      0.0026      0.0042
        19         0.0000      0.0000      0.0000      0.0000      0.0000
        20         0.0000      0.0000      0.0000      0.0000      0.0000
        21         0.0000      0.0000      0.0000      0.0000      0.0000
        22         0.0000      0.0000      0.0000      0.0000      0.0000
        23         0.0000      0.0000      0.0000      0.0000      0.0000
        24         0.0000      0.0000      0.0000      0.0000      0.0000
 Ground to excited state transition magnetic dipole moments (Au):
       state          X           Y           Z
         1         0.0000      0.0000      0.0000
         2         0.0000      0.0000      0.0000
         3         0.0000      0.0000      0.0000
         4         0.0000      0.0000      0.0000
         5         0.0000      0.0000     -0.0001
         6         0.0000      0.0000      0.0000
         7         0.0000      0.0000      0.0000
         8         0.0000      0.0000      0.0000
         9         0.0000      0.0000      0.0000
        10        -0.0001      0.0002      0.3872
        11         0.0002     -0.0004     -0.7090
        12         0.0000      0.0000      0.0000
        13         0.0000      0.0000      0.0000
        14         0.0000      0.0000      0.0000
        15         0.0000      0.0000      0.0000
        16         0.0000      0.0000      0.0000
        17         0.0000      0.0000      0.0000
        18        -0.0989      0.0473     -0.0001
        19         0.0000      0.0000      0.0000
        20         0.0000      0.0000      0.0000
        21        -2.0433      1.6729     -0.0017
        22        -1.6730     -2.0433      0.0008
        23         0.0000      0.0000     -0.0001
        24        -0.0016      0.0011      0.0000
 Ground to excited state transition velocity quadrupole moments (Au):
       state          XX          YY          ZZ          XY          XZ          YZ
         1         0.0000      0.0000      0.0000      0.0000      0.0000      0.0000
         2         0.0000      0.0000      0.0000      0.0000      0.0000      0.0000
         3         0.0000      0.0000      0.0000      0.0000      0.0000      0.0000
         4         0.0000      0.0000      0.0000      0.0000      0.0000      0.0000
         5         0.0001     -0.0001      0.0000      0.0001      0.0000      0.0000
         6         0.0000      0.0000      0.0000     -0.0001      0.0000      0.0000
         7         0.0000      0.0000      0.0000      0.0000      0.0000      0.0000
         8         0.0000      0.0000      0.0000      0.0000      0.0000      0.0000
         9         0.0000      0.0000      0.0000      0.0000      0.0000      0.0000
        10        -0.5657     -0.8522      0.0000     -0.7950      0.0003      0.0003
        11         0.4078     -1.1822      0.0000      0.1433      0.0000      0.0008
        12         0.0000      0.0000      0.0000      0.0000      0.0000      0.0000
        13         0.0000      0.0000      0.0000      0.0000      0.0000      0.0000
        14         0.0000      0.0000      0.0000      0.0000      0.0000      0.0000
        15         0.0000      0.0000      0.0000      0.0000      0.0000      0.0000
        16         0.0000      0.0000      0.0000      0.0000      0.0000      0.0000
        17         0.0000      0.0000      0.0000      0.0000      0.0000      0.0000
        18         0.0000     -0.0001      0.0001      0.0000     -0.0473     -0.0989
        19         0.0000      0.0000      0.0000      0.0000      0.0000      0.0000
        20         0.0000      0.0000      0.0000      0.0000      0.0000      0.0000
        21        -0.0001      0.0002     -0.0001      0.0000      0.1102      0.1345
        22         0.0001      0.0001     -0.0002     -0.0001     -0.1345      0.1102
        23        -0.3222      0.3223      0.0000     -0.7885      0.0004     -0.0004
        24         0.0000      0.0000      0.0000      0.0000      0.0001      0.0001
 <0|del|b> * <b|rxdel|0> + <0|del|b> * <b|delr+rdel|0>
 Rotatory Strengths (R) in cgs (10**-40 erg-esu-cm/Gauss)
       state          XX          YY          ZZ    R(velocity)    E-M Angle
         1         0.0000      0.0000      0.0000      0.0000       90.00
         2         0.0000      0.0000      0.0000      0.0000       90.00
         3         0.0000      0.0000      0.0000      0.0000       90.00
         4         0.0000      0.0000      0.0000      0.0000       90.00
         5         0.0000      0.0000      0.0000      0.0000       90.00
         6         0.0000      0.0000      0.0000      0.0000       90.00
         7         0.0000      0.0000      0.0000      0.0000       90.00
         8         0.0000      0.0000      0.0000      0.0000       90.00
         9         0.0000      0.0000      0.0000      0.0000       90.00
        10         0.0000      0.0000      0.0000      0.0000       90.00
        11         0.0000      0.0000      0.0000      0.0000       90.00
        12         0.0000      0.0000      0.0000      0.0000       90.00
        13         0.0000      0.0000      0.0000      0.0000       90.00
        14         0.0000      0.0000      0.0000      0.0000       90.00
        15         0.0000      0.0000      0.0000      0.0000       90.00
        16         0.0000      0.0000      0.0000      0.0000       90.00
        17         0.0000      0.0000      0.0000      0.0000       90.00
        18         0.0000      0.0000      0.0000      0.0000       90.00
        19         0.0000      0.0000      0.0000      0.0000       90.00
        20         0.0000      0.0000      0.0000      0.0000       90.00
        21         0.0000      0.0000      0.0000      0.0000       90.00
        22         0.0000      0.0000      0.0000      0.0000       90.00
        23         0.0000      0.0000      0.0000      0.0000       90.00
        24         0.0000      0.0000      0.0000      0.0000       90.00
 1/2[<0|r|b>*<b|rxdel|0> + (<0|rxdel|b>*<b|r|0>)*]
 Rotatory Strengths (R) in cgs (10**-40 erg-esu-cm/Gauss)
       state          XX          YY          ZZ     R(length)
         1         0.0000      0.0000      0.0000      0.0000
         2         0.0000      0.0000      0.0000      0.0000
         3         0.0000      0.0000      0.0000      0.0000
         4         0.0000      0.0000      0.0000      0.0000
         5         0.0000      0.0000      0.0000      0.0000
         6         0.0000      0.0000      0.0000      0.0000
         7         0.0000      0.0000      0.0000      0.0000
         8         0.0000      0.0000      0.0000      0.0000
         9         0.0000      0.0000      0.0000      0.0000
        10         0.1165     -0.1809      0.0643      0.0000
        11         0.1718      0.4715     -0.6434      0.0000
        12         0.0000      0.0000      0.0000      0.0000
        13         0.0000      0.0000      0.0000      0.0000
        14         0.0000      0.0000      0.0000      0.0000
        15         0.0000      0.0000      0.0000      0.0000
        16         0.0000      0.0000      0.0000      0.0000
        17         0.0000      0.0000      0.0000      0.0000
        18        -0.0025     -0.0027      0.0052      0.0000
        19         0.0000      0.0000      0.0000      0.0000
        20         0.0000      0.0000      0.0000      0.0000
        21        -0.0001      0.0001      0.0000      0.0000
        22        -0.0001      0.0001      0.0000      0.0000
        23         0.0000      0.0000      0.0000      0.0000
        24         0.0000      0.0000      0.0000      0.0000
  1/2[<0|del|b>*<b|r|0> + (<0|r|b>*<b|del|0>)*] (Au)
       state          X           Y           Z        Dip. S.   Osc.(frdel)
         1         0.0000      0.0000      0.0000      0.0000      0.0000
         2         0.0000      0.0000      0.0000      0.0000      0.0000
         3         0.0000      0.0000      0.0000      0.0000      0.0000
         4         0.0000      0.0000      0.0000      0.0000      0.0000
         5         0.0000      0.0000      0.0000      0.0000      0.0000
         6         0.0000      0.0000      0.0000      0.0000      0.0000
         7         0.0000      0.0000      0.0000      0.0000      0.0000
         8         0.0000      0.0000      0.0000      0.0000      0.0000
         9         0.0000      0.0000      0.0000      0.0000      0.0000
        10        -0.4527     -0.2352      0.0000      0.6879      0.4586
        11        -0.2353     -0.4527      0.0000      0.6880      0.4587
        12         0.0000      0.0000      0.0000      0.0000      0.0000
        13         0.0000      0.0000      0.0000      0.0000      0.0000
        14         0.0000      0.0000      0.0000      0.0000      0.0000
        15         0.0000      0.0000      0.0000      0.0000      0.0000
        16         0.0000      0.0000      0.0000      0.0000      0.0000
        17         0.0000      0.0000      0.0000      0.0000      0.0000
        18         0.0000      0.0000     -0.0065      0.0065      0.0043
        19         0.0000      0.0000      0.0000      0.0000      0.0000
        20         0.0000      0.0000      0.0000      0.0000      0.0000
        21         0.0000      0.0000      0.0000      0.0000      0.0000
        22         0.0000      0.0000      0.0000      0.0000      0.0000
        23         0.0000      0.0000      0.0000      0.0000      0.0000
        24         0.0000      0.0000      0.0000      0.0000      0.0000

 Excitation energies and oscillator strengths:
 
 Excited state symmetry could not be determined.
 Excited State   1:      Triplet-?Sym    -4.3059 eV    -287.94 nm  f=-0.0000  <S**2>=2.000
      17 -> 24         0.23605
      20 -> 22        -0.42588
      20 -> 23        -0.25763
      21 -> 22        -0.25765
      21 -> 23         0.42591
      17 <- 24         0.10457
      20 <- 22        -0.13022
      21 <- 23         0.13022
 This state for optimization and/or second-order correction.
 Total Energy, E(TD-HF/TD-KS) =  -228.048477063    
 Copying the excited state density for this state as the 1-particle RhoCI density.
 
 Excited state symmetry could not be determined.
 Excited State   2:      Triplet-?Sym    5.8101 eV  213.39 nm  f=0.0000  <S**2>=2.000
      20 -> 22         0.39292
      20 -> 23        -0.31263
      21 -> 22         0.31275
      21 -> 23         0.39300
 
 Excited state symmetry could not be determined.
 Excited State   3:      Triplet-?Sym    5.8102 eV  213.39 nm  f=0.0000  <S**2>=2.000
      20 -> 22        -0.31274
      20 -> 23        -0.39292
      21 -> 22         0.39300
      21 -> 23        -0.31265
 
 Excited state symmetry could not be determined.
 Excited State   4:      Triplet-?Sym    7.2387 eV  171.28 nm  f=0.0000  <S**2>=2.000
      20 -> 22        -0.26078
      20 -> 23         0.43114
      21 -> 22         0.43096
      21 -> 23         0.26074
 
 Excited state symmetry could not be determined.
 Excited State   5:      Singlet-?Sym    7.4553 eV  166.30 nm  f=0.0000  <S**2>=0.000
      20 -> 22        -0.26027
      20 -> 23         0.43022
      21 -> 22         0.43033
      21 -> 23         0.26030
 
 Excited state symmetry could not be determined.
 Excited State   6:      Singlet-?Sym    7.7709 eV  159.55 nm  f=0.0000  <S**2>=0.000
      20 -> 22        -0.41953
      20 -> 23        -0.25377
      21 -> 22        -0.25385
      21 -> 23         0.41960
 
 Excited state symmetry could not be determined.
 Excited State   7:      Triplet-?Sym    7.8963 eV  157.01 nm  f=0.0000  <S**2>=2.000
      17 -> 22         0.52333
      17 -> 23        -0.18863
      20 -> 24        -0.28088
      21 -> 24        -0.34679
 
 Excited state symmetry could not be determined.
 Excited State   8:      Triplet-?Sym    7.8964 eV  157.01 nm  f=0.0000  <S**2>=2.000
      17 -> 22         0.18864
      17 -> 23         0.52333
      20 -> 24        -0.34678
      21 -> 24         0.28090
 
 Excited state symmetry could not be determined.
 Excited State   9:      Triplet-?Sym    9.6062 eV  129.07 nm  f=0.0000  <S**2>=2.000
      10 -> 23         0.11762
      11 -> 22        -0.11767
      14 -> 24         0.22191
      18 -> 22        -0.15266
      18 -> 23         0.43445
      19 -> 22         0.43478
      19 -> 23         0.15268
 
 Excited state symmetry could not be determined.
 Excited State  10:      Singlet-?Sym    9.6918 eV  127.93 nm  f=0.8002  <S**2>=0.000
      20 -> 22         0.36642
      20 -> 23         0.33808
      21 -> 22        -0.33798
      21 -> 23         0.36636
 
 Excited state symmetry could not be determined.
 Excited State  11:      Singlet-?Sym    9.6918 eV  127.93 nm  f=0.8003  <S**2>=0.000
      20 -> 22         0.33805
      20 -> 23        -0.36643
      21 -> 22         0.36634
      21 -> 23         0.33801
 
 Excited state symmetry could not be determined.
 Excited State  12:      Singlet-?Sym   10.1437 eV  122.23 nm  f=0.0000  <S**2>=0.000
      10 -> 23         0.10919
      11 -> 22        -0.10923
      14 -> 24         0.20293
      18 -> 22        -0.15473
      18 -> 23         0.44032
      19 -> 22         0.44068
      19 -> 23         0.15475
 
 Excited state symmetry could not be determined.
 Excited State  13:      Triplet-?Sym   10.2384 eV  121.10 nm  f=0.0000  <S**2>=2.000
      12 -> 23         0.10367
      16 -> 24        -0.16956
      18 -> 22         0.40903
      18 -> 23         0.23859
      19 -> 22        -0.23859
      19 -> 23         0.40946
 
 Excited state symmetry could not be determined.
 Excited State  14:      Triplet-?Sym   10.2385 eV  121.10 nm  f=0.0000  <S**2>=2.000
      12 -> 22         0.10367
      15 -> 24        -0.16953
      18 -> 22        -0.23867
      18 -> 23         0.40938
      19 -> 22        -0.40912
      19 -> 23        -0.23851
 
 Excited state symmetry could not be determined.
 Excited State  15:      Triplet-?Sym   10.6557 eV  116.35 nm  f=0.0000  <S**2>=2.000
      13 -> 24         0.12658
      18 -> 22         0.46401
      18 -> 23         0.16307
      19 -> 22         0.16282
      19 -> 23        -0.46370
 
 Excited state symmetry could not be determined.
 Excited State  16:      Singlet-?Sym   10.7561 eV  115.27 nm  f=0.0000  <S**2>=0.000
      16 -> 24        -0.15212
      18 -> 22         0.41607
      18 -> 23         0.23967
      19 -> 22        -0.23970
      19 -> 23         0.41662
 
 Excited state symmetry could not be determined.
 Excited State  17:      Singlet-?Sym   10.7562 eV  115.27 nm  f=0.0000  <S**2>=0.000
      15 -> 24        -0.15210
      18 -> 22        -0.23977
      18 -> 23         0.41648
      19 -> 22        -0.41621
      19 -> 23        -0.23959
 
 Excited state symmetry could not be determined.
 Excited State  18:      Singlet-?Sym   11.0765 eV  111.93 nm  f=0.0044  <S**2>=0.000
      13 -> 24         0.11468
      18 -> 22         0.46542
      18 -> 23         0.16359
      19 -> 22         0.16326
      19 -> 23        -0.46502
 
 Excited state symmetry could not be determined.
 Excited State  19:      Triplet-?Sym   11.3769 eV  108.98 nm  f=0.0000  <S**2>=2.000
      13 -> 23        -0.10252
      14 -> 22         0.44711
      14 -> 23         0.12858
      15 -> 22         0.22636
      15 -> 23         0.15172
      16 -> 22         0.15204
      16 -> 23        -0.22702
      19 -> 24         0.32977
 
 Excited state symmetry could not be determined.
 Excited State  20:      Triplet-?Sym   11.3771 eV  108.98 nm  f=0.0000  <S**2>=2.000
      13 -> 22         0.10259
      14 -> 22        -0.12860
      14 -> 23         0.44709
      15 -> 22         0.15185
      15 -> 23        -0.22667
      16 -> 22        -0.22670
      16 -> 23        -0.15194
      18 -> 24         0.32976
 
 Excited state symmetry could not be determined.
 Excited State  21:      Singlet-?Sym   12.0795 eV  102.64 nm  f=0.0000  <S**2>=0.000
      13 -> 23        -0.10447
      14 -> 22         0.45164
      14 -> 23         0.12539
      15 -> 22         0.23023
      15 -> 23         0.15740
      16 -> 22         0.15773
      16 -> 23        -0.23089
      19 -> 24         0.31910
 
 Excited state symmetry could not be determined.
 Excited State  22:      Singlet-?Sym   12.0797 eV  102.64 nm  f=0.0000  <S**2>=0.000
      13 -> 22         0.10454
      14 -> 22        -0.12542
      14 -> 23         0.45162
      15 -> 22         0.15753
      15 -> 23        -0.23053
      16 -> 22        -0.23057
      16 -> 23        -0.15764
      18 -> 24         0.31909
 
 Excited state symmetry could not be determined.
 Excited State  23:      Singlet-?Sym   12.4871 eV   99.29 nm  f=0.0000  <S**2>=0.000
      17 -> 22         0.61850
      17 -> 23        -0.14219
      20 -> 24        -0.20273
      21 -> 24        -0.19661
 
 Excited state symmetry could not be determined.
 Excited State  24:      Singlet-?Sym   12.5601 eV   98.71 nm  f=0.0000  <S**2>=0.000
      12 -> 24        -0.16212
      15 -> 22         0.44087
      15 -> 23         0.20194
      16 -> 22        -0.20185
      16 -> 23         0.44067
 SavETr:  write IOETrn=   770 NScale= 10 NData=  16 NLR=1 NState=   24 LETran=     442.

 **********************************************************************

            Population analysis using the SCF density.

 **********************************************************************

 Alpha  occ. eigenvalues --  -11.02907 -11.02907 -11.02904 -11.02874 -11.02873
 Alpha  occ. eigenvalues --  -11.02860  -1.08713  -0.95280  -0.95278  -0.76540
 Alpha  occ. eigenvalues --   -0.76538  -0.65977  -0.59392  -0.55123  -0.53267
 Alpha  occ. eigenvalues --   -0.53263  -0.45385  -0.43209  -0.43207  -0.27849
 Alpha  occ. eigenvalues --   -0.27847
 Alpha virt. eigenvalues --    0.26782   0.26783   0.50116   0.57730   0.64673
 Alpha virt. eigenvalues --    0.64675   0.71511   0.72925   0.72926   0.88059
 Alpha virt. eigenvalues --    0.88064   0.89202   0.89208   1.08095   1.14345
     Molecular Orbital Coefficients:
                           1         2         3         4         5
                           O         O         O         O         O
     Eigenvalues --   -11.02907 -11.02907 -11.02904 -11.02874 -11.02873
   1 1   C  1S          0.03588  -0.56878   0.39854  -0.04010   0.57603
   2        2S          0.00104  -0.01658   0.00889  -0.00172   0.02489
   3        2PX        -0.00328   0.00007  -0.00079  -0.00343   0.00071
   4        2PY         0.00185   0.00061  -0.00135   0.00183   0.00177
   5        2PZ         0.00000   0.00000   0.00000   0.00000   0.00000
   6 2   C  1S          0.51413  -0.25739   0.40960   0.51333  -0.24693
   7        2S          0.01506  -0.00760   0.00937   0.02229  -0.01081
   8        2PX        -0.00121  -0.00304   0.00073   0.00062   0.00346
   9        2PY        -0.00126  -0.00149  -0.00134   0.00235   0.00100
  10        2PZ         0.00000   0.00000   0.00000   0.00000   0.00000
  11 3   C  1S          0.47639   0.32062   0.40803  -0.47615  -0.31472
  12        2S          0.01393   0.00945   0.00930  -0.02064  -0.01375
  13        2PX         0.00046   0.00028   0.00153   0.00158   0.00109
  14        2PY         0.00209  -0.00314   0.00004   0.00217  -0.00323
  15        2PZ         0.00000   0.00000   0.00000   0.00000   0.00000
  16 4   C  1S         -0.03588   0.56879   0.39854  -0.04010   0.57603
  17        2S         -0.00104   0.01658   0.00889  -0.00172   0.02489
  18        2PX        -0.00328   0.00007   0.00079   0.00343  -0.00071
  19        2PY         0.00185   0.00061   0.00135  -0.00183  -0.00177
  20        2PZ         0.00000   0.00000   0.00000   0.00000   0.00000
  21 5   C  1S         -0.51413   0.25739   0.40960   0.51333  -0.24693
  22        2S         -0.01506   0.00760   0.00937   0.02229  -0.01081
  23        2PX        -0.00121  -0.00304  -0.00073  -0.00062  -0.00346
  24        2PY        -0.00126  -0.00149   0.00134  -0.00235  -0.00100
  25        2PZ         0.00000   0.00000   0.00000   0.00000   0.00000
  26 6   C  1S         -0.47639  -0.32062   0.40804  -0.47615  -0.31472
  27        2S         -0.01393  -0.00945   0.00930  -0.02064  -0.01375
  28        2PX         0.00046   0.00028  -0.00153  -0.00158  -0.00109
  29        2PY         0.00209  -0.00314  -0.00004  -0.00217   0.00323
  30        2PZ         0.00000   0.00000   0.00000   0.00000   0.00000
  31 7   H  1S         -0.00024   0.00376  -0.00275   0.00028  -0.00398
  32 8   H  1S         -0.00340   0.00170  -0.00283  -0.00355   0.00171
  33 9   H  1S         -0.00315  -0.00212  -0.00282   0.00329   0.00218
  34 10  H  1S          0.00024  -0.00376  -0.00275   0.00028  -0.00398
  35 11  H  1S          0.00340  -0.00170  -0.00283  -0.00355   0.00171
  36 12  H  1S          0.00315   0.00212  -0.00282   0.00329   0.00218
                           6         7         8         9        10
                           O         O         O         O         O
     Eigenvalues --   -11.02860  -1.08713  -0.95280  -0.95278  -0.76540
   1 1   C  1S          0.40913  -0.10460   0.01217  -0.14581   0.01975
   2        2S          0.02097   0.26551  -0.03293   0.39451  -0.05833
   3        2PX         0.00122   0.03075   0.11098   0.02293   0.20353
   4        2PY         0.00211   0.05325  -0.06670   0.01811  -0.10070
   5        2PZ         0.00000  -0.00002   0.00008   0.00000   0.00013
   6 2   C  1S         -0.40201  -0.10460  -0.12019  -0.08344  -0.10740
   7        2S         -0.02076   0.26551   0.32519   0.22577   0.31723
   8        2PX         0.00124  -0.03074   0.05296  -0.10019  -0.02870
   9        2PY        -0.00211   0.05327   0.05644  -0.03988  -0.10807
  10        2PZ         0.00000  -0.00004  -0.00002   0.00000   0.00006
  11 3   C  1S          0.40304  -0.10460  -0.13236   0.06236   0.08765
  12        2S          0.02079   0.26552   0.35812  -0.16874  -0.25889
  13        2PX        -0.00245  -0.06150  -0.02467   0.01161  -0.06469
  14        2PY         0.00003   0.00000  -0.05537  -0.11752  -0.14772
  15        2PZ         0.00000  -0.00002   0.00003   0.00008   0.00008
  16 4   C  1S         -0.40913  -0.10460  -0.01217   0.14581   0.01975
  17        2S         -0.02097   0.26551   0.03293  -0.39451  -0.05833
  18        2PX         0.00122  -0.03075   0.11098   0.02293  -0.20353
  19        2PY         0.00211  -0.05325  -0.06670   0.01811   0.10070
  20        2PZ         0.00000   0.00002   0.00008   0.00000  -0.00013
  21 5   C  1S          0.40201  -0.10460   0.12019   0.08344  -0.10740
  22        2S          0.02076   0.26551  -0.32519  -0.22577   0.31723
  23        2PX         0.00124   0.03074   0.05296  -0.10019   0.02870
  24        2PY        -0.00211  -0.05327   0.05644  -0.03988   0.10807
  25        2PZ         0.00000   0.00004  -0.00002   0.00000  -0.00006
  26 6   C  1S         -0.40304  -0.10460   0.13236  -0.06236   0.08765
  27        2S         -0.02079   0.26552  -0.35812   0.16874  -0.25889
  28        2PX        -0.00245   0.06150  -0.02467   0.01161   0.06469
  29        2PY         0.00003   0.00000  -0.05537  -0.11752   0.14772
  30        2PZ         0.00000   0.00002   0.00003   0.00008  -0.00008
  31 7   H  1S         -0.00292   0.04724  -0.00906   0.10861  -0.03084
  32 8   H  1S          0.00287   0.04724   0.08952   0.06216   0.16775
  33 9   H  1S         -0.00288   0.04724   0.09859  -0.04646  -0.13691
  34 10  H  1S          0.00292   0.04724   0.00906  -0.10861  -0.03084
  35 11  H  1S         -0.00287   0.04724  -0.08952  -0.06216   0.16775
  36 12  H  1S          0.00288   0.04724  -0.09859   0.04646  -0.13691
                          11        12        13        14        15
                           O         O         O         O         O
     Eigenvalues --    -0.76538  -0.65977  -0.59392  -0.55123  -0.53267
   1 1   C  1S         -0.11261  -0.00872   0.06536   0.00001   0.00010
   2        2S          0.33263   0.03552  -0.21947  -0.00002  -0.00031
   3        2PX        -0.00714  -0.11725   0.08171   0.28762  -0.08899
   4        2PY        -0.09184  -0.20307   0.14159  -0.16605   0.04977
   5        2PZ         0.00006   0.00009  -0.00007   0.00019  -0.00006
   6 2   C  1S          0.03920  -0.00872  -0.06535  -0.00001   0.02306
   7        2S         -0.11580   0.03554   0.21945   0.00002  -0.07323
   8        2PX        -0.20164   0.11722   0.08182  -0.28763   0.11606
   9        2PY        -0.08299  -0.20310  -0.14165  -0.16605  -0.30234
  10        2PZ        -0.00001   0.00017   0.00012   0.00002   0.00023
  11 3   C  1S          0.07341  -0.00872   0.06535   0.00001   0.02296
  12        2S         -0.21684   0.03553  -0.21945  -0.00005  -0.07290
  13        2PX        -0.05417   0.23450  -0.16357  -0.00001   0.31848
  14        2PY         0.17638   0.00001  -0.00002   0.33212   0.05130
  15        2PZ        -0.00013   0.00007  -0.00005  -0.00021   0.00006
  16 4   C  1S         -0.11261  -0.00872  -0.06536  -0.00001  -0.00010
  17        2S          0.33263   0.03552   0.21947   0.00002   0.00031
  18        2PX         0.00714   0.11725   0.08171   0.28762  -0.08899
  19        2PY         0.09184   0.20307   0.14159  -0.16605   0.04977
  20        2PZ        -0.00006  -0.00009  -0.00007   0.00019  -0.00006
  21 5   C  1S          0.03920  -0.00872   0.06535   0.00001  -0.02306
  22        2S         -0.11580   0.03554  -0.21945  -0.00002   0.07323
  23        2PX         0.20164  -0.11722   0.08182  -0.28763   0.11606
  24        2PY         0.08299   0.20310  -0.14165  -0.16605  -0.30234
  25        2PZ         0.00001  -0.00017   0.00012   0.00002   0.00023
  26 6   C  1S          0.07341  -0.00872  -0.06535  -0.00001  -0.02296
  27        2S         -0.21684   0.03553   0.21945   0.00005   0.07290
  28        2PX         0.05417  -0.23450  -0.16357  -0.00001   0.31848
  29        2PY        -0.17638  -0.00001  -0.00002   0.33212   0.05130
  30        2PZ         0.00013  -0.00007  -0.00005  -0.00021   0.00006
  31 7   H  1S          0.17589   0.17608  -0.23162  -0.00003   0.00108
  32 8   H  1S         -0.06123   0.17610   0.23170   0.00003   0.24611
  33 9   H  1S         -0.11466   0.17609  -0.23170  -0.00002   0.24504
  34 10  H  1S          0.17589   0.17608   0.23162   0.00003  -0.00108
  35 11  H  1S         -0.06123   0.17610  -0.23170  -0.00003  -0.24611
  36 12  H  1S         -0.11466   0.17609   0.23170   0.00002  -0.24504
                          16        17        18        19        20
                           O         O         O         O         O
     Eigenvalues --    -0.53263  -0.45385  -0.43209  -0.43207  -0.27849
   1 1   C  1S         -0.02658   0.00000   0.00077   0.00799   0.00000
   2        2S          0.08439   0.00000  -0.00175  -0.01816   0.00000
   3        2PX         0.18398  -0.00010   0.27423  -0.16772   0.00002
   4        2PY         0.31939   0.00022  -0.18935  -0.22683  -0.00004
   5        2PZ        -0.00015   0.33471   0.00021   0.00009  -0.05877
   6 2   C  1S         -0.01322   0.00000  -0.00730  -0.00333   0.00000
   7        2S          0.04198   0.00000   0.01661   0.00756   0.00000
   8        2PX        -0.16814  -0.00010  -0.24804   0.20448  -0.00013
   9        2PY         0.11429   0.00022   0.15260   0.25300   0.00028
  10        2PZ        -0.00012   0.33471  -0.00017  -0.00010   0.42842
  11 3   C  1S          0.01339   0.00000   0.00654  -0.00466   0.00000
  12        2S         -0.04253   0.00000  -0.01486   0.01060   0.00000
  13        2PX         0.18546  -0.00010   0.22932  -0.16338  -0.00015
  14        2PY        -0.08811   0.00022  -0.19363  -0.27176   0.00031
  15        2PZ         0.00011   0.33472   0.00019   0.00012   0.48719
  16 4   C  1S          0.02658   0.00000   0.00077   0.00799   0.00000
  17        2S         -0.08439   0.00000  -0.00175  -0.01816   0.00000
  18        2PX         0.18398  -0.00010  -0.27423   0.16772  -0.00002
  19        2PY         0.31939   0.00021   0.18935   0.22683   0.00004
  20        2PZ        -0.00015   0.33471  -0.00020  -0.00009   0.05877
  21 5   C  1S          0.01322   0.00000  -0.00730  -0.00333   0.00000
  22        2S         -0.04198   0.00000   0.01661   0.00756   0.00000
  23        2PX        -0.16814  -0.00010   0.24804  -0.20448   0.00013
  24        2PY         0.11429   0.00022  -0.15260  -0.25300  -0.00028
  25        2PZ        -0.00012   0.33471   0.00017   0.00010  -0.42842
  26 6   C  1S         -0.01339   0.00000   0.00654  -0.00466   0.00000
  27        2S          0.04253   0.00000  -0.01486   0.01060   0.00000
  28        2PX         0.18546  -0.00010  -0.22932   0.16338   0.00015
  29        2PY        -0.08811   0.00021   0.19363   0.27176  -0.00031
  30        2PZ         0.00011   0.33472  -0.00019  -0.00012  -0.48719
  31 7   H  1S         -0.28362   0.00000   0.02838   0.29637   0.00000
  32 8   H  1S         -0.14080   0.00000  -0.27084  -0.12361   0.00000
  33 9   H  1S          0.14267   0.00000   0.24246  -0.17276   0.00000
  34 10  H  1S          0.28362   0.00000   0.02838   0.29637   0.00000
  35 11  H  1S          0.14080   0.00000  -0.27084  -0.12361   0.00000
  36 12  H  1S         -0.14267   0.00000   0.24246  -0.17276   0.00000
                          21        22        23        24        25
                           O         V         V         V         V
     Eigenvalues --    -0.27847   0.26782   0.26783   0.50116   0.57730
   1 1   C  1S          0.00000   0.00000   0.00000   0.00000   0.05259
   2        2S          0.00000   0.00000   0.00000   0.00000  -0.33282
   3        2PX        -0.00016   0.00008  -0.00018  -0.00016   0.15780
   4        2PY         0.00034  -0.00018   0.00038   0.00033   0.27325
   5        2PZ         0.52863  -0.27606   0.59669   0.52122  -0.00013
   6 2   C  1S          0.00000   0.00000   0.00000   0.00000   0.05260
   7        2S          0.00000   0.00000   0.00000   0.00000  -0.33291
   8        2PX        -0.00010  -0.00020   0.00002   0.00016  -0.15767
   9        2PY         0.00020   0.00042  -0.00004  -0.00034   0.27326
  10        2PZ         0.31521   0.65478  -0.05927  -0.52123  -0.00022
  11 3   C  1S          0.00000   0.00000   0.00000   0.00000   0.05260
  12        2S          0.00000   0.00000   0.00000   0.00000  -0.33290
  13        2PX         0.00007   0.00012   0.00016  -0.00016  -0.31549
  14        2PY        -0.00014  -0.00024  -0.00035   0.00033  -0.00003
  15        2PZ        -0.21342  -0.37872  -0.53742   0.52123  -0.00010
  16 4   C  1S          0.00000   0.00000   0.00000   0.00000   0.05259
  17        2S          0.00000   0.00000   0.00000   0.00000  -0.33282
  18        2PX         0.00016   0.00008  -0.00018   0.00016  -0.15780
  19        2PY        -0.00034  -0.00018   0.00038  -0.00033  -0.27325
  20        2PZ        -0.52863  -0.27606   0.59669  -0.52122   0.00013
  21 5   C  1S          0.00000   0.00000   0.00000   0.00000   0.05260
  22        2S          0.00000   0.00000   0.00000   0.00000  -0.33291
  23        2PX         0.00010  -0.00020   0.00002  -0.00016   0.15767
  24        2PY        -0.00020   0.00042  -0.00004   0.00033  -0.27326
  25        2PZ        -0.31521   0.65478  -0.05927   0.52123   0.00022
  26 6   C  1S          0.00000   0.00000   0.00000   0.00000   0.05260
  27        2S          0.00000   0.00000   0.00000   0.00000  -0.33290
  28        2PX        -0.00007   0.00012   0.00016   0.00016   0.31549
  29        2PY         0.00014  -0.00024  -0.00035  -0.00033   0.00003
  30        2PZ         0.21342  -0.37872  -0.53742  -0.52123   0.00010
  31 7   H  1S          0.00000   0.00000   0.00000   0.00000   0.51011
  32 8   H  1S          0.00000   0.00000   0.00000   0.00000   0.51010
  33 9   H  1S          0.00000   0.00000   0.00000   0.00000   0.51010
  34 10  H  1S          0.00000   0.00000   0.00000   0.00000   0.51011
  35 11  H  1S          0.00000   0.00000   0.00000   0.00000   0.51010
  36 12  H  1S          0.00000   0.00000   0.00000   0.00000   0.51010
                          26        27        28        29        30
                           V         V         V         V         V
     Eigenvalues --     0.64673   0.64675   0.71511   0.72925   0.72926
   1 1   C  1S          0.00059   0.03044  -0.12018  -0.15007   0.06222
   2        2S         -0.00385  -0.19884   0.75069   0.96620  -0.40062
   3        2PX        -0.27153   0.28271  -0.03132   0.15836   0.33602
   4        2PY         0.16931   0.47701  -0.05432  -0.05394  -0.20953
   5        2PZ        -0.00019  -0.00022   0.00003   0.00008   0.00024
   6 2   C  1S          0.02670   0.01476   0.12018   0.12891   0.09884
   7        2S         -0.17436  -0.09638  -0.75069  -0.82999  -0.63640
   8        2PX        -0.37650   0.10873  -0.03130   0.23978  -0.28396
   9        2PY         0.34332   0.37198   0.05407   0.10628  -0.18842
  10        2PZ        -0.00034  -0.00021  -0.00004   0.00000   0.00003
  11 3   C  1S          0.02610  -0.01578  -0.12017   0.02115  -0.16106
  12        2S         -0.17047   0.10306   0.75065  -0.13616   1.03700
  13        2PX        -0.47472   0.28657   0.06248   0.00474  -0.03468
  14        2PY         0.16532   0.27383  -0.00010  -0.42492  -0.05581
  15        2PZ        -0.00025  -0.00009   0.00002   0.00027   0.00003
  16 4   C  1S         -0.00059  -0.03044   0.12018  -0.15007   0.06222
  17        2S          0.00385   0.19884  -0.75069   0.96620  -0.40062
  18        2PX        -0.27153   0.28271  -0.03132  -0.15836  -0.33602
  19        2PY         0.16931   0.47701  -0.05432   0.05394   0.20953
  20        2PZ        -0.00019  -0.00022   0.00003  -0.00008  -0.00024
  21 5   C  1S         -0.02670  -0.01476  -0.12018   0.12891   0.09884
  22        2S          0.17436   0.09638   0.75069  -0.82999  -0.63640
  23        2PX        -0.37650   0.10873  -0.03130  -0.23978   0.28396
  24        2PY         0.34332   0.37198   0.05407  -0.10628   0.18842
  25        2PZ        -0.00034  -0.00021  -0.00004   0.00000  -0.00003
  26 6   C  1S         -0.02610   0.01578   0.12017   0.02115  -0.16106
  27        2S          0.17047  -0.10306  -0.75065  -0.13616   1.03700
  28        2PX        -0.47472   0.28657   0.06248  -0.00474   0.03468
  29        2PY         0.16532   0.27383  -0.00010   0.42492   0.05581
  30        2PZ        -0.00025  -0.00009   0.00002  -0.00027  -0.00003
  31 7   H  1S          0.01275   0.65284  -0.44760  -0.43485   0.18033
  32 8   H  1S          0.57185   0.31550   0.44739   0.37363   0.28657
  33 9   H  1S          0.55908  -0.33759  -0.44738   0.06116  -0.46688
  34 10  H  1S         -0.01275  -0.65284   0.44760  -0.43485   0.18033
  35 11  H  1S         -0.57185  -0.31550  -0.44739   0.37363   0.28657
  36 12  H  1S         -0.55908   0.33759   0.44738   0.06116  -0.46688
                          31        32        33        34        35
                           V         V         V         V         V
     Eigenvalues --     0.88059   0.88064   0.89202   0.89208   1.08095
   1 1   C  1S         -0.02892  -0.00012  -0.09444   0.01457   0.00000
   2        2S          0.20794   0.00090   0.67417  -0.10401  -0.00004
   3        2PX         0.40430  -0.19683   0.07499   0.72032   0.65255
   4        2PY         0.69805   0.11803  -0.12476  -0.40341  -0.37683
   5        2PZ        -0.00032  -0.00014   0.00010   0.00048   0.00044
   6 2   C  1S          0.01457  -0.02503  -0.03459   0.08905   0.00001
   7        2S         -0.10472   0.17995   0.24694  -0.63572  -0.00006
   8        2PX         0.37484  -0.24813   0.68727   0.22870   0.65255
   9        2PY        -0.25318   0.66129   0.36671   0.20885   0.37663
  10        2PZ         0.00028  -0.00050  -0.00003  -0.00006  -0.00004
  11 3   C  1S          0.01435   0.02516   0.05981   0.07450  -0.00002
  12        2S         -0.10313  -0.18086  -0.42700  -0.53186   0.00012
  13        2PX         0.40011   0.70055  -0.04478  -0.05568  -0.00002
  14        2PY        -0.19911   0.11388   0.65122  -0.52304   0.75347
  15        2PZ         0.00025   0.00014  -0.00043   0.00032  -0.00048
  16 4   C  1S         -0.02892  -0.00012   0.09444  -0.01457   0.00000
  17        2S          0.20794   0.00090  -0.67417   0.10401  -0.00004
  18        2PX        -0.40430   0.19683   0.07499   0.72032  -0.65255
  19        2PY        -0.69805  -0.11803  -0.12476  -0.40341   0.37683
  20        2PZ         0.00032   0.00014   0.00010   0.00048  -0.00044
  21 5   C  1S          0.01457  -0.02503   0.03459  -0.08905   0.00001
  22        2S         -0.10472   0.17995  -0.24694   0.63572  -0.00006
  23        2PX        -0.37484   0.24813   0.68727   0.22870  -0.65256
  24        2PY         0.25318  -0.66129   0.36671   0.20885  -0.37663
  25        2PZ        -0.00028   0.00050  -0.00003  -0.00006   0.00004
  26 6   C  1S          0.01435   0.02516  -0.05981  -0.07450  -0.00002
  27        2S         -0.10313  -0.18086   0.42700   0.53186   0.00012
  28        2PX        -0.40011  -0.70055  -0.04478  -0.05568   0.00002
  29        2PY         0.19911  -0.11388   0.65122  -0.52304  -0.75347
  30        2PZ        -0.00025  -0.00014  -0.00043   0.00032   0.00048
  31 7   H  1S          0.55088   0.00262  -0.30002   0.04625  -0.00001
  32 8   H  1S         -0.27775   0.47566  -0.10999   0.28293   0.00000
  33 9   H  1S         -0.27322  -0.47828   0.19008   0.23672  -0.00004
  34 10  H  1S          0.55088   0.00262   0.30002  -0.04625  -0.00001
  35 11  H  1S         -0.27775   0.47566   0.10999  -0.28293   0.00000
  36 12  H  1S         -0.27322  -0.47828  -0.19008  -0.23672  -0.00004
                          36
                           V
     Eigenvalues --     1.14345
   1 1   C  1S          0.06088
   2        2S         -0.45774
   3        2PX        -0.33603
   4        2PY        -0.58193
   5        2PZ         0.00027
   6 2   C  1S         -0.06089
   7        2S          0.45786
   8        2PX        -0.33586
   9        2PY         0.58213
  10        2PZ        -0.00048
  11 3   C  1S          0.06089
  12        2S         -0.45786
  13        2PX         0.67206
  14        2PY         0.00013
  15        2PZ         0.00020
  16 4   C  1S         -0.06088
  17        2S          0.45774
  18        2PX        -0.33603
  19        2PY        -0.58193
  20        2PZ         0.00027
  21 5   C  1S          0.06089
  22        2S         -0.45786
  23        2PX        -0.33586
  24        2PY         0.58213
  25        2PZ        -0.00048
  26 6   C  1S         -0.06089
  27        2S          0.45786
  28        2PX         0.67206
  29        2PY         0.00013
  30        2PZ         0.00020
  31 7   H  1S         -0.27843
  32 8   H  1S          0.27845
  33 9   H  1S         -0.27845
  34 10  H  1S          0.27843
  35 11  H  1S         -0.27845
  36 12  H  1S          0.27845
     Density Matrix:
                           1         2         3         4         5
   1 1   C  1S          2.06997
   2        2S         -0.21070   0.79913
   3        2PX         0.00105  -0.00927   0.60706
   4        2PY         0.00181  -0.01605   0.00575   0.61370
   5        2PZ         0.00000   0.00001  -0.00006   0.00011   0.78987
   6 2   C  1S          0.02406  -0.06293  -0.11061  -0.00074  -0.00003
   7        2S         -0.06293   0.09563   0.29190   0.00794   0.00008
   8        2PX         0.11061  -0.29191  -0.47024   0.00526  -0.00030
   9        2PY        -0.00076   0.00799  -0.00518   0.00158   0.00032
  10        2PZ         0.00003  -0.00009  -0.00029   0.00033   0.50697
  11 3   C  1S         -0.00457   0.01455   0.02048   0.01005   0.00000
  12        2S          0.01456  -0.03825  -0.07274  -0.04380   0.00001
  13        2PX        -0.01894   0.07429   0.07610   0.01603   0.00003
  14        2PY        -0.01270   0.04108   0.05408   0.03561  -0.00004
  15        2PZ         0.00000   0.00000   0.00001  -0.00006  -0.05883
  16 4   C  1S         -0.00434   0.01515   0.00589   0.01020   0.00000
  17        2S          0.01515  -0.05178  -0.02138  -0.03703   0.00002
  18        2PX        -0.00589   0.02138  -0.03098   0.03886   0.00007
  19        2PY        -0.01020   0.03703   0.03886   0.01387  -0.00022
  20        2PZ         0.00000  -0.00002   0.00007  -0.00022  -0.34174
  21 5   C  1S         -0.00457   0.01455  -0.00153   0.02276  -0.00002
  22        2S          0.01455  -0.03825  -0.00157  -0.08489   0.00005
  23        2PX        -0.00153  -0.00157   0.01538   0.01903   0.00001
  24        2PY        -0.02276   0.08488  -0.01902   0.09634  -0.00011
  25        2PZ         0.00001  -0.00006   0.00003  -0.00009  -0.05884
  26 6   C  1S          0.02406  -0.06293   0.05465  -0.09616   0.00008
  27        2S         -0.06293   0.09563  -0.13903   0.25677  -0.00021
  28        2PX        -0.05596   0.15286  -0.11637   0.19908  -0.00032
  29        2PY         0.09542  -0.24883   0.20951  -0.35230   0.00062
  30        2PZ        -0.00008   0.00021  -0.00032   0.00061   0.50697
  31 7   H  1S         -0.10959   0.28694  -0.27676  -0.47929   0.00022
  32 8   H  1S          0.02711  -0.09964  -0.11126   0.06008  -0.00007
  33 9   H  1S         -0.01697   0.06519   0.08920   0.00379   0.00002
  34 10  H  1S         -0.00203   0.00725   0.00215   0.00372   0.00000
  35 11  H  1S         -0.01697   0.06519  -0.04131   0.07915  -0.00006
  36 12  H  1S          0.02711  -0.09966   0.10766  -0.06633   0.00008
                           6         7         8         9        10
   6 2   C  1S          2.06997
   7        2S         -0.21070   0.79912
   8        2PX        -0.00105   0.00927   0.60707
   9        2PY         0.00182  -0.01608  -0.00574   0.61370
  10        2PZ         0.00000   0.00001  -0.00005   0.00011   0.78986
  11 3   C  1S          0.02406  -0.06292  -0.05467  -0.09616   0.00005
  12        2S         -0.06292   0.09562   0.13911   0.25675  -0.00012
  13        2PX         0.05595  -0.15282  -0.11640  -0.19906  -0.00006
  14        2PY         0.09542  -0.24882  -0.20958  -0.35227   0.00049
  15        2PZ        -0.00004   0.00011  -0.00006   0.00049   0.50696
  16 4   C  1S         -0.00457   0.01455   0.00153   0.02276  -0.00001
  17        2S          0.01455  -0.03825   0.00157  -0.08488   0.00005
  18        2PX         0.00153   0.00157   0.01538  -0.01902   0.00003
  19        2PY        -0.02276   0.08489   0.01903   0.09634  -0.00009
  20        2PZ         0.00002  -0.00005   0.00001  -0.00011  -0.05884
  21 5   C  1S         -0.00434   0.01514  -0.00589   0.01020  -0.00001
  22        2S          0.01514  -0.05176   0.02137  -0.03701   0.00003
  23        2PX         0.00589  -0.02137  -0.03099  -0.03884   0.00012
  24        2PY        -0.01020   0.03701  -0.03884   0.01388  -0.00024
  25        2PZ         0.00001  -0.00003   0.00012  -0.00024  -0.34173
  26 6   C  1S         -0.00457   0.01455  -0.02047   0.01005  -0.00001
  27        2S          0.01455  -0.03822   0.07271  -0.04380   0.00005
  28        2PX         0.01894  -0.07429   0.07610  -0.01604   0.00005
  29        2PY        -0.01271   0.04108  -0.05407   0.03563  -0.00008
  30        2PZ         0.00001  -0.00005   0.00008  -0.00007  -0.05883
  31 7   H  1S          0.02711  -0.09966   0.11129   0.06006   0.00000
  32 8   H  1S         -0.10960   0.28697   0.27666  -0.47932   0.00039
  33 9   H  1S          0.02711  -0.09962  -0.10767  -0.06632   0.00001
  34 10  H  1S         -0.01697   0.06519   0.04132   0.07914  -0.00004
  35 11  H  1S         -0.00203   0.00723  -0.00215   0.00371   0.00000
  36 12  H  1S         -0.01697   0.06518  -0.08920   0.00380  -0.00003
                          11        12        13        14        15
  11 3   C  1S          2.06997
  12        2S         -0.21070   0.79912
  13        2PX        -0.00210   0.01856   0.61701
  14        2PY         0.00000  -0.00001   0.00000   0.60376
  15        2PZ         0.00000   0.00001  -0.00005   0.00012   0.78986
  16 4   C  1S          0.02406  -0.06293   0.05596  -0.09542   0.00008
  17        2S         -0.06293   0.09563  -0.15286   0.24883  -0.00021
  18        2PX        -0.05465   0.13903  -0.11637   0.20951  -0.00032
  19        2PY         0.09616  -0.25677   0.19908  -0.35230   0.00061
  20        2PZ        -0.00008   0.00021  -0.00032   0.00062   0.50697
  21 5   C  1S         -0.00457   0.01455  -0.01894   0.01271  -0.00001
  22        2S          0.01455  -0.03822   0.07429  -0.04108   0.00005
  23        2PX         0.02047  -0.07271   0.07610  -0.05407   0.00008
  24        2PY        -0.01005   0.04380  -0.01604   0.03563  -0.00007
  25        2PZ         0.00001  -0.00005   0.00005  -0.00008  -0.05883
  26 6   C  1S         -0.00434   0.01514  -0.01178   0.00000   0.00000
  27        2S          0.01514  -0.05176   0.04274   0.00000   0.00001
  28        2PX         0.01178  -0.04274   0.03630   0.00000   0.00012
  29        2PY         0.00000   0.00000   0.00000  -0.05341  -0.00019
  30        2PZ         0.00000  -0.00001   0.00012  -0.00019  -0.34172
  31 7   H  1S         -0.01697   0.06519  -0.04789  -0.07535   0.00003
  32 8   H  1S          0.02711  -0.09963   0.00361   0.12641  -0.00008
  33 9   H  1S         -0.10960   0.28697   0.55343   0.00001   0.00017
  34 10  H  1S          0.02711  -0.09965   0.00361  -0.12641   0.00008
  35 11  H  1S         -0.01697   0.06518  -0.04788   0.07535  -0.00006
  36 12  H  1S         -0.00203   0.00723  -0.00429   0.00001   0.00000
                          16        17        18        19        20
  16 4   C  1S          2.06997
  17        2S         -0.21070   0.79913
  18        2PX        -0.00105   0.00927   0.60706
  19        2PY        -0.00181   0.01605   0.00575   0.61370
  20        2PZ         0.00000  -0.00001  -0.00006   0.00011   0.78987
  21 5   C  1S          0.02406  -0.06293   0.11061   0.00074   0.00003
  22        2S         -0.06293   0.09563  -0.29190  -0.00794  -0.00008
  23        2PX        -0.11061   0.29191  -0.47024   0.00526  -0.00030
  24        2PY         0.00076  -0.00799  -0.00518   0.00158   0.00032
  25        2PZ        -0.00003   0.00009  -0.00029   0.00033   0.50697
  26 6   C  1S         -0.00457   0.01455  -0.02048  -0.01005   0.00000
  27        2S          0.01456  -0.03825   0.07274   0.04380  -0.00001
  28        2PX         0.01894  -0.07429   0.07610   0.01603   0.00003
  29        2PY         0.01270  -0.04108   0.05408   0.03561  -0.00004
  30        2PZ         0.00000   0.00000   0.00001  -0.00006  -0.05883
  31 7   H  1S         -0.00203   0.00725  -0.00215  -0.00372   0.00000
  32 8   H  1S         -0.01697   0.06519   0.04131  -0.07915   0.00006
  33 9   H  1S          0.02711  -0.09966  -0.10766   0.06633  -0.00008
  34 10  H  1S         -0.10959   0.28694   0.27676   0.47929  -0.00022
  35 11  H  1S          0.02711  -0.09964   0.11126  -0.06008   0.00007
  36 12  H  1S         -0.01697   0.06519  -0.08920  -0.00379  -0.00002
                          21        22        23        24        25
  21 5   C  1S          2.06997
  22        2S         -0.21070   0.79912
  23        2PX         0.00105  -0.00927   0.60707
  24        2PY        -0.00182   0.01608  -0.00574   0.61370
  25        2PZ         0.00000  -0.00001  -0.00005   0.00011   0.78986
  26 6   C  1S          0.02406  -0.06292   0.05467   0.09616  -0.00005
  27        2S         -0.06292   0.09562  -0.13911  -0.25675   0.00012
  28        2PX        -0.05595   0.15282  -0.11640  -0.19906  -0.00006
  29        2PY        -0.09542   0.24882  -0.20958  -0.35227   0.00049
  30        2PZ         0.00004  -0.00011  -0.00006   0.00049   0.50696
  31 7   H  1S         -0.01697   0.06519  -0.04132  -0.07914   0.00004
  32 8   H  1S         -0.00203   0.00723   0.00215  -0.00371   0.00000
  33 9   H  1S         -0.01697   0.06518   0.08920  -0.00380   0.00003
  34 10  H  1S          0.02711  -0.09966  -0.11129  -0.06006   0.00000
  35 11  H  1S         -0.10960   0.28697  -0.27666   0.47932  -0.00039
  36 12  H  1S          0.02711  -0.09962   0.10767   0.06632  -0.00001
                          26        27        28        29        30
  26 6   C  1S          2.06997
  27        2S         -0.21070   0.79912
  28        2PX         0.00210  -0.01856   0.61701
  29        2PY         0.00000   0.00001   0.00000   0.60376
  30        2PZ         0.00000  -0.00001  -0.00005   0.00012   0.78986
  31 7   H  1S          0.02711  -0.09965  -0.00361   0.12641  -0.00008
  32 8   H  1S         -0.01697   0.06518   0.04788  -0.07535   0.00006
  33 9   H  1S         -0.00203   0.00723   0.00429  -0.00001   0.00000
  34 10  H  1S         -0.01697   0.06519   0.04789   0.07535  -0.00003
  35 11  H  1S          0.02711  -0.09963  -0.00361  -0.12641   0.00008
  36 12  H  1S         -0.10960   0.28697  -0.55343  -0.00001  -0.00017
                          31        32        33        34        35
  31 7   H  1S          0.59956
  32 8   H  1S         -0.06911   0.59953
  33 9   H  1S         -0.03899  -0.06910   0.59954
  34 10  H  1S          0.01560  -0.03899  -0.06911   0.59956
  35 11  H  1S         -0.03899   0.01561  -0.03898  -0.06911   0.59953
  36 12  H  1S         -0.06911  -0.03898   0.01561  -0.03899  -0.06910
                          36
  36 12  H  1S          0.59954
    Full Mulliken population analysis:
                           1         2         3         4         5
   1 1   C  1S          2.06997
   2        2S         -0.05233   0.79913
   3        2PX         0.00000   0.00000   0.60706
   4        2PY         0.00000   0.00000   0.00000   0.61370
   5        2PZ         0.00000   0.00000   0.00000   0.00000   0.78987
   6 2   C  1S          0.00000  -0.00237  -0.00690   0.00000   0.00000
   7        2S         -0.00237   0.03494   0.11337   0.00000   0.00000
   8        2PX        -0.00690   0.11337   0.15423   0.00000   0.00000
   9        2PY         0.00000   0.00000   0.00000   0.00034   0.00000
  10        2PZ         0.00000   0.00000   0.00000   0.00000   0.10826
  11 3   C  1S          0.00000   0.00003   0.00007   0.00002   0.00000
  12        2S          0.00003  -0.00231  -0.00561  -0.00195   0.00000
  13        2PX         0.00007  -0.00573  -0.00635  -0.00101   0.00000
  14        2PY         0.00003  -0.00183  -0.00339  -0.00039   0.00000
  15        2PZ         0.00000   0.00000   0.00000   0.00000  -0.00149
  16 4   C  1S          0.00000   0.00001   0.00000   0.00001   0.00000
  17        2S          0.00001  -0.00134  -0.00045  -0.00134   0.00000
  18        2PX         0.00000  -0.00045   0.00025  -0.00122   0.00000
  19        2PY         0.00001  -0.00134  -0.00122  -0.00061   0.00000
  20        2PZ         0.00000   0.00000   0.00000   0.00000  -0.00342
  21 5   C  1S          0.00000   0.00003   0.00000   0.00009   0.00000
  22        2S          0.00003  -0.00231   0.00000  -0.00756   0.00000
  23        2PX         0.00000   0.00000   0.00039   0.00000   0.00000
  24        2PY         0.00009  -0.00756   0.00000  -0.01152   0.00000
  25        2PZ         0.00000   0.00000   0.00000   0.00000  -0.00149
  26 6   C  1S          0.00000  -0.00237  -0.00170  -0.00520   0.00000
  27        2S         -0.00237   0.03494   0.02700   0.08636   0.00000
  28        2PX        -0.00175   0.02968  -0.00910   0.04668   0.00000
  29        2PY        -0.00516   0.08369   0.04913   0.06785   0.00000
  30        2PZ         0.00000   0.00000   0.00000   0.00000   0.10826
  31 7   H  1S         -0.00687   0.14124   0.06479   0.19431   0.00000
  32 8   H  1S          0.00015  -0.00964  -0.01251  -0.00328   0.00000
  33 9   H  1S          0.00000   0.00043   0.00090   0.00001   0.00000
  34 10  H  1S          0.00000   0.00001   0.00000   0.00001   0.00000
  35 11  H  1S          0.00000   0.00043   0.00007   0.00085   0.00000
  36 12  H  1S          0.00015  -0.00965  -0.01113  -0.00465   0.00000
                           6         7         8         9        10
   6 2   C  1S          2.06997
   7        2S         -0.05233   0.79912
   8        2PX         0.00000   0.00000   0.60707
   9        2PY         0.00000   0.00000   0.00000   0.61370
  10        2PZ         0.00000   0.00000   0.00000   0.00000   0.78986
  11 3   C  1S          0.00000  -0.00237  -0.00171  -0.00520   0.00000
  12        2S         -0.00237   0.03493   0.02702   0.08636   0.00000
  13        2PX        -0.00175   0.02968  -0.00910   0.04668   0.00000
  14        2PY        -0.00516   0.08369   0.04915   0.06784   0.00000
  15        2PZ         0.00000   0.00000   0.00000   0.00000   0.10826
  16 4   C  1S          0.00000   0.00003   0.00000   0.00009   0.00000
  17        2S          0.00003  -0.00231   0.00000  -0.00756   0.00000
  18        2PX         0.00000   0.00000   0.00039   0.00000   0.00000
  19        2PY         0.00009  -0.00756   0.00000  -0.01152   0.00000
  20        2PZ         0.00000   0.00000   0.00000   0.00000  -0.00149
  21 5   C  1S          0.00000   0.00001   0.00000   0.00001   0.00000
  22        2S          0.00001  -0.00134  -0.00045  -0.00134   0.00000
  23        2PX         0.00000  -0.00045   0.00025  -0.00122   0.00000
  24        2PY         0.00001  -0.00134  -0.00122  -0.00061   0.00000
  25        2PZ         0.00000   0.00000   0.00000   0.00000  -0.00341
  26 6   C  1S          0.00000   0.00003   0.00007   0.00002   0.00000
  27        2S          0.00003  -0.00231  -0.00561  -0.00195   0.00000
  28        2PX         0.00007  -0.00573  -0.00634  -0.00101   0.00000
  29        2PY         0.00003  -0.00183  -0.00339  -0.00039   0.00000
  30        2PZ         0.00000   0.00000   0.00000   0.00000  -0.00149
  31 7   H  1S          0.00015  -0.00965  -0.01251  -0.00327   0.00000
  32 8   H  1S         -0.00687   0.14126   0.06475   0.19434   0.00000
  33 9   H  1S          0.00015  -0.00964  -0.01113  -0.00465   0.00000
  34 10  H  1S          0.00000   0.00043   0.00007   0.00085   0.00000
  35 11  H  1S          0.00000   0.00001   0.00000   0.00001   0.00000
  36 12  H  1S          0.00000   0.00043   0.00090   0.00001   0.00000
                          11        12        13        14        15
  11 3   C  1S          2.06997
  12        2S         -0.05233   0.79912
  13        2PX         0.00000   0.00000   0.61701
  14        2PY         0.00000   0.00000   0.00000   0.60376
  15        2PZ         0.00000   0.00000   0.00000   0.00000   0.78986
  16 4   C  1S          0.00000  -0.00237  -0.00175  -0.00516   0.00000
  17        2S         -0.00237   0.03494   0.02968   0.08369   0.00000
  18        2PX        -0.00170   0.02700  -0.00910   0.04913   0.00000
  19        2PY        -0.00520   0.08636   0.04668   0.06785   0.00000
  20        2PZ         0.00000   0.00000   0.00000   0.00000   0.10826
  21 5   C  1S          0.00000   0.00003   0.00007   0.00003   0.00000
  22        2S          0.00003  -0.00231  -0.00573  -0.00183   0.00000
  23        2PX         0.00007  -0.00561  -0.00634  -0.00339   0.00000
  24        2PY         0.00002  -0.00195  -0.00101  -0.00039   0.00000
  25        2PZ         0.00000   0.00000   0.00000   0.00000  -0.00149
  26 6   C  1S          0.00000   0.00001   0.00001   0.00000   0.00000
  27        2S          0.00001  -0.00134  -0.00178   0.00000   0.00000
  28        2PX         0.00001  -0.00178  -0.00226   0.00000   0.00000
  29        2PY         0.00000   0.00000   0.00000  -0.00053   0.00000
  30        2PZ         0.00000   0.00000   0.00000   0.00000  -0.00341
  31 7   H  1S          0.00000   0.00043   0.00040   0.00051   0.00000
  32 8   H  1S          0.00015  -0.00964  -0.00003  -0.01575   0.00000
  33 9   H  1S         -0.00687   0.14126   0.25909   0.00000   0.00000
  34 10  H  1S          0.00015  -0.00965  -0.00003  -0.01575   0.00000
  35 11  H  1S          0.00000   0.00043   0.00040   0.00051   0.00000
  36 12  H  1S          0.00000   0.00001   0.00001   0.00000   0.00000
                          16        17        18        19        20
  16 4   C  1S          2.06997
  17        2S         -0.05233   0.79913
  18        2PX         0.00000   0.00000   0.60706
  19        2PY         0.00000   0.00000   0.00000   0.61370
  20        2PZ         0.00000   0.00000   0.00000   0.00000   0.78987
  21 5   C  1S          0.00000  -0.00237  -0.00690   0.00000   0.00000
  22        2S         -0.00237   0.03494   0.11337   0.00000   0.00000
  23        2PX        -0.00690   0.11337   0.15423   0.00000   0.00000
  24        2PY         0.00000   0.00000   0.00000   0.00034   0.00000
  25        2PZ         0.00000   0.00000   0.00000   0.00000   0.10826
  26 6   C  1S          0.00000   0.00003   0.00007   0.00002   0.00000
  27        2S          0.00003  -0.00231  -0.00561  -0.00195   0.00000
  28        2PX         0.00007  -0.00573  -0.00635  -0.00101   0.00000
  29        2PY         0.00003  -0.00183  -0.00339  -0.00039   0.00000
  30        2PZ         0.00000   0.00000   0.00000   0.00000  -0.00149
  31 7   H  1S          0.00000   0.00001   0.00000   0.00001   0.00000
  32 8   H  1S          0.00000   0.00043   0.00007   0.00085   0.00000
  33 9   H  1S          0.00015  -0.00965  -0.01113  -0.00465   0.00000
  34 10  H  1S         -0.00687   0.14124   0.06479   0.19431   0.00000
  35 11  H  1S          0.00015  -0.00964  -0.01251  -0.00328   0.00000
  36 12  H  1S          0.00000   0.00043   0.00090   0.00001   0.00000
                          21        22        23        24        25
  21 5   C  1S          2.06997
  22        2S         -0.05233   0.79912
  23        2PX         0.00000   0.00000   0.60707
  24        2PY         0.00000   0.00000   0.00000   0.61370
  25        2PZ         0.00000   0.00000   0.00000   0.00000   0.78986
  26 6   C  1S          0.00000  -0.00237  -0.00171  -0.00520   0.00000
  27        2S         -0.00237   0.03493   0.02702   0.08636   0.00000
  28        2PX        -0.00175   0.02968  -0.00910   0.04668   0.00000
  29        2PY        -0.00516   0.08369   0.04915   0.06784   0.00000
  30        2PZ         0.00000   0.00000   0.00000   0.00000   0.10826
  31 7   H  1S          0.00000   0.00043   0.00007   0.00085   0.00000
  32 8   H  1S          0.00000   0.00001   0.00000   0.00001   0.00000
  33 9   H  1S          0.00000   0.00043   0.00090   0.00001   0.00000
  34 10  H  1S          0.00015  -0.00965  -0.01251  -0.00327   0.00000
  35 11  H  1S         -0.00687   0.14126   0.06475   0.19434   0.00000
  36 12  H  1S          0.00015  -0.00964  -0.01113  -0.00465   0.00000
                          26        27        28        29        30
  26 6   C  1S          2.06997
  27        2S         -0.05233   0.79912
  28        2PX         0.00000   0.00000   0.61701
  29        2PY         0.00000   0.00000   0.00000   0.60376
  30        2PZ         0.00000   0.00000   0.00000   0.00000   0.78986
  31 7   H  1S          0.00015  -0.00965  -0.00003  -0.01575   0.00000
  32 8   H  1S          0.00000   0.00043   0.00040   0.00051   0.00000
  33 9   H  1S          0.00000   0.00001   0.00001   0.00000   0.00000
  34 10  H  1S          0.00000   0.00043   0.00040   0.00051   0.00000
  35 11  H  1S          0.00015  -0.00964  -0.00003  -0.01575   0.00000
  36 12  H  1S         -0.00687   0.14126   0.25909   0.00000   0.00000
                          31        32        33        34        35
  31 7   H  1S          0.59956
  32 8   H  1S         -0.00351   0.59953
  33 9   H  1S         -0.00003  -0.00351   0.59954
  34 10  H  1S          0.00000  -0.00003  -0.00351   0.59956
  35 11  H  1S         -0.00003   0.00000  -0.00003  -0.00351   0.59953
  36 12  H  1S         -0.00351  -0.00003   0.00000  -0.00003  -0.00351
                          36
  36 12  H  1S          0.59954
     Gross orbital populations:
                           1
   1 1   C  1S          1.99278
   2        2S          1.13869
   3        2PX         0.95891
   4        2PY         0.97153
   5        2PZ         1.00000
   6 2   C  1S          1.99278
   7        2S          1.13869
   8        2PX         0.95892
   9        2PY         0.97153
  10        2PZ         1.00000
  11 3   C  1S          1.99278
  12        2S          1.13869
  13        2PX         0.97784
  14        2PY         0.95261
  15        2PZ         1.00000
  16 4   C  1S          1.99278
  17        2S          1.13869
  18        2PX         0.95891
  19        2PY         0.97153
  20        2PZ         1.00000
  21 5   C  1S          1.99278
  22        2S          1.13869
  23        2PX         0.95892
  24        2PY         0.97153
  25        2PZ         1.00000
  26 6   C  1S          1.99278
  27        2S          1.13869
  28        2PX         0.97784
  29        2PY         0.95261
  30        2PZ         1.00000
  31 7   H  1S          0.93809
  32 8   H  1S          0.93808
  33 9   H  1S          0.93808
  34 10  H  1S          0.93809
  35 11  H  1S          0.93808
  36 12  H  1S          0.93808
          Condensed to atoms (all electrons):
               1          2          3          4          5          6
     1  C    4.775076   0.505962  -0.029816  -0.011088  -0.029815   0.505966
     2  C    0.505962   4.775059   0.505964  -0.029815  -0.011079  -0.029803
     3  C   -0.029816   0.505964   4.775059   0.505966  -0.029803  -0.011079
     4  C   -0.011088  -0.029815   0.505966   4.775076   0.505962  -0.029816
     5  C   -0.029815  -0.011079  -0.029803   0.505962   4.775059   0.505964
     6  C    0.505966  -0.029803  -0.011079  -0.029816   0.505964   4.775059
     7  H    0.393482  -0.025287   0.001341   0.000028   0.001341  -0.025285
     8  H   -0.025281   0.393484  -0.025281   0.001341   0.000028   0.001340
     9  H    0.001341  -0.025279   0.393485  -0.025286   0.001340   0.000028
    10  H    0.000028   0.001341  -0.025285   0.393482  -0.025287   0.001341
    11  H    0.001341   0.000028   0.001340  -0.025281   0.393484  -0.025281
    12  H   -0.025286   0.001340   0.000028   0.001341  -0.025279   0.393485
               7          8          9         10         11         12
     1  C    0.393482  -0.025281   0.001341   0.000028   0.001341  -0.025286
     2  C   -0.025287   0.393484  -0.025279   0.001341   0.000028   0.001340
     3  C    0.001341  -0.025281   0.393485  -0.025285   0.001340   0.000028
     4  C    0.000028   0.001341  -0.025286   0.393482  -0.025281   0.001341
     5  C    0.001341   0.000028   0.001340  -0.025287   0.393484  -0.025279
     6  C   -0.025285   0.001340   0.000028   0.001341  -0.025281   0.393485
     7  H    0.599562  -0.003513  -0.000031   0.000002  -0.000031  -0.003514
     8  H   -0.003513   0.599533  -0.003511  -0.000031   0.000002  -0.000031
     9  H   -0.000031  -0.003511   0.599536  -0.003514  -0.000031   0.000002
    10  H    0.000002  -0.000031  -0.003514   0.599562  -0.003513  -0.000031
    11  H   -0.000031   0.000002  -0.000031  -0.003513   0.599533  -0.003511
    12  H   -0.003514  -0.000031   0.000002  -0.000031  -0.003511   0.599536
 Mulliken charges:
               1
     1  C   -0.061910
     2  C   -0.061916
     3  C   -0.061918
     4  C   -0.061910
     5  C   -0.061916
     6  C   -0.061918
     7  H    0.061905
     8  H    0.061920
     9  H    0.061919
    10  H    0.061905
    11  H    0.061920
    12  H    0.061919
 Sum of Mulliken charges =   0.00000
 Mulliken charges with hydrogens summed into heavy atoms:
               1
     1  C   -0.000005
     2  C    0.000004
     3  C    0.000001
     4  C   -0.000005
     5  C    0.000004
     6  C    0.000001
 Electronic spatial extent (au):  <R**2>=            651.5471
 Charge=              0.0000 electrons
 Dipole moment (field-independent basis, Debye):
    X=              0.0000    Y=              0.0000    Z=              0.0000  Tot=              0.0000
 Quadrupole moment (field-independent basis, Debye-Ang):
   XX=            -31.1758   YY=            -31.1761   ZZ=            -35.1196
   XY=             -0.0003   XZ=              0.0012   YZ=             -0.0025
 Traceless Quadrupole moment (field-independent basis, Debye-Ang):
   XX=              1.3147   YY=              1.3144   ZZ=             -2.6291
   XY=             -0.0003   XZ=              0.0012   YZ=             -0.0025
 Octapole moment (field-independent basis, Debye-Ang**2):
  XXX=            -46.0505  YYY=            -96.2385  ZZZ=              0.0519  XYY=            -15.3509
  XXY=            -32.0794  XXZ=              0.0165  XZZ=            -17.2920  YZZ=            -36.1373
  YYZ=              0.0101  XYZ=              0.0000
 Hexadecapole moment (field-independent basis, Debye-Ang**3):
 XXXX=           -306.7748 YYYY=           -459.4712 ZZZZ=            -28.5351 XXXY=            -47.3780
 XXXZ=             -0.0068 YYYX=            -47.3846 YYYZ=              0.1032 ZZZX=             -0.0152
 ZZZY=              0.1391 XXYY=           -127.7092 XXZZ=            -62.5174 YYZZ=            -91.1855
 XXYZ=              0.0377 YYXZ=             -0.0038 ZZXY=            -17.7912
 N-N= 2.029242874433D+02 E-N=-9.366684525892D+02  KE= 2.259232589874D+02
 Orbital energies and kinetic energies (alpha):
                                 1                 2
   1         O               -11.029073         15.650339
   2         O               -11.029068         15.650335
   3         O               -11.029039         15.667563
   4         O               -11.028736         15.626095
   5         O               -11.028731         15.626100
   6         O               -11.028598         15.613000
   7         O                -1.087127          1.373313
   8         O                -0.952796          1.501747
   9         O                -0.952779          1.501731
  10         O                -0.765398          1.341272
  11         O                -0.765383          1.341290
  12         O                -0.659774          0.854055
  13         O                -0.593922          1.243106
  14         O                -0.551234          1.305777
  15         O                -0.532672          1.140574
  16         O                -0.532635          1.140649
  17         O                -0.453847          1.085273
  18         O                -0.432088          1.326611
  19         O                -0.432071          1.326623
  20         O                -0.278485          1.323077
  21         O                -0.278470          1.323098
  22         V                 0.267820          1.820997
  23         V                 0.267827          1.821006
  24         V                 0.501155          2.160426
  25         V                 0.577299          2.001032
  26         V                 0.646734          2.127790
  27         V                 0.646750          2.127821
  28         V                 0.715107          3.098683
  29         V                 0.729246          3.221981
  30         V                 0.729261          3.221816
  31         V                 0.880593          2.732577
  32         V                 0.880645          2.732961
  33         V                 0.892022          3.161344
  34         V                 0.892077          3.161462
  35         V                 1.080946          3.351127
  36         V                 1.143454          3.562726
 Total kinetic energy from orbitals= 2.259232589874D+02
 Unable to Open any file for archive entry.
 1\1\GINC-MEDUSA\SP\RTD-Full\STO-3G\C6H6\PLESTRAN\26-Oct-2015\0\\# hf/s
 to-3G gfinput pop=full nosymm td(full,nstates=12,50-50)\\Benzene STO-3
 G\\0,1\C,0,-0.2069851582,-0.182179772,0.0000714421\C,0,1.1916738876,-0
 .1823529436,0.0004985861\C,0,1.8910553573,1.0288676731,-0.0000660445\C
 ,0,1.1917349868,2.2401336715,-0.0010564977\C,0,-0.206924055,2.24030684
 93,-0.0014838269\C,0,-0.9063055337,1.0290862369,-0.0009191682\H,0,-0.7
 50746176,-1.1238955859,0.0005098114\H,0,1.7352854346,-1.124149144,0.00
 12705069\H,0,2.9784784245,1.0289339946,0.0002669247\H,0,1.7354959994,3
 .1818494841,-0.0014954845\H,0,-0.7505356043,3.1821030485,-0.0022553738
 \H,0,-1.9937286031,1.0290199075,-0.0012518757\\Version=ES64L-GDVRevI.0
 3+\HF=-227.8902366\MP2=-228.2428004\EFC=0.\RMSD=1.414e-09\PG=CI [X(C6H
 6)]\\@
 The archive entry for this job was punched.


 A CHEMICAL PHYSICIST MAKES PRECISE MEASUREMENTS ON IMPURE COMPOUNDS.
 A THEORETICAL PHYSICAL CHEMIST MAKES IMPRECISE
     MEASUREMENTS ON PURE COMPOUNDS.
 AN EXPERIMENTAL PHYSICAL CHEMIST MAKES IMPRECISE
     MEASUREMENTS ON IMPURE COMPOUNDS.
 Job cpu time:       0 days  0 hours  0 minutes  1.8 seconds.
 Elapsed time:       0 days  0 hours  0 minutes  1.5 seconds.
 File lengths (MBytes):  RWF=     30 Int=      0 D2E=      0 Chk=      3 Scr=      1
 Normal termination of Gaussian DV at Mon Oct 26 18:16:14 2015.
