 Entering Gaussian System, Link 0=gdv
 Input=benzene_sto3g.com
 Output=benzene_sto3g.log
 Initial command:
 /home/gauss/gdvi01p/gdv/l1.exe "/home/GauScr/Gau-32698.inp" -scrdir="/home/GauScr/"
 Entering Link 1 = /home/gauss/gdvi01p/gdv/l1.exe PID=     32699.
  
 Copyright (c) 1988,1990,1992,1993,1995,1998,2003,2009,2014,
            Gaussian, Inc.  All Rights Reserved.
  
 This is the private, development version of
 the Gaussian(R) DV system of programs. It is based on
 the Gaussian(R) 09 system (copyright 2009, Gaussian, Inc.),
 the Gaussian(R) 03 system (copyright 2003, Gaussian, Inc.),
 the Gaussian(R) 98 system (copyright 1998, Gaussian, Inc.),
 the Gaussian(R) 94 system (copyright 1995, Gaussian, Inc.),
 the Gaussian 92(TM) system (copyright 1992, Gaussian, Inc.),
 the Gaussian 90(TM) system (copyright 1990, Gaussian, Inc.),
 the Gaussian 88(TM) system (copyright 1988, Gaussian, Inc.),
 the Gaussian 86(TM) system (copyright 1986, Carnegie Mellon
 University), and the Gaussian 82(TM) system (copyright 1983,
 Carnegie Mellon University). Gaussian is a federally registered
 trademark of Gaussian, Inc.
  
 This software contains proprietary and confidential information,
 including trade secrets, belonging to Gaussian, Inc.
  
 This software is provided under written license and may be
 used, copied, transmitted, or stored only in accord with that
 written license.
  
 The following legend is applicable only to US Government
 contracts under FAR:
  
                    RESTRICTED RIGHTS LEGEND
  
 Use, reproduction and disclosure by the US Government is
 subject to restrictions as set forth in subparagraphs (a)
 and (c) of the Commercial Computer Software - Restricted
 Rights clause in FAR 52.227-19.
  
 Gaussian, Inc.
 340 Quinnipiac St., Bldg. 40, Wallingford CT 06492
  
  
 ---------------------------------------------------------------
 Warning -- This program may not be used in any manner that
 competes with the business of Gaussian, Inc. or will provide
 assistance to any competitor of Gaussian, Inc.  The licensee
 of this program is prohibited from giving any competitor of
 Gaussian, Inc. access to this program.  By using this program,
 the user acknowledges that Gaussian, Inc. is engaged in the
 business of creating and licensing software in the field of
 computational chemistry and represents and warrants to the
 licensee that it is not a competitor of Gaussian, Inc. and that
 it will not use this program in any manner prohibited above.
 ---------------------------------------------------------------
  

 Cite this work as:
 Gaussian Development Version, Revision I.01+,
 M. J. Frisch, G. W. Trucks, H. B. Schlegel, G. E. Scuseria, 
 M. A. Robb, J. R. Cheeseman, G. Scalmani, V. Barone, B. Mennucci, 
 G. A. Petersson, H. Nakatsuji, M. Caricato, X. Li, H. P. Hratchian, 
 A. F. Izmaylov, J. Bloino, B. G. Janesko, F. Lipparini, G. Zheng, 
 J. L. Sonnenberg, W. Liang, M. Hada, M. Ehara, K. Toyota, R. Fukuda, 
 J. Hasegawa, M. Ishida, T. Nakajima, Y. Honda, O. Kitao, H. Nakai, 
 T. Vreven, J. A. Montgomery, Jr., J. E. Peralta, F. Ogliaro, 
 M. Bearpark, J. J. Heyd, E. Brothers, K. N. Kudin, V. N. Staroverov, 
 T. Keith, R. Kobayashi, J. Normand, K. Raghavachari, A. Rendell, 
 J. C. Burant, S. S. Iyengar, J. Tomasi, M. Cossi, N. Rega, 
 J. M. Millam, M. Klene, J. E. Knox, J. B. Cross, V. Bakken, 
 C. Adamo, J. Jaramillo, R. Gomperts, R. E. Stratmann, O. Yazyev, 
 A. J. Austin, R. Cammi, C. Pomelli, J. W. Ochterski, R. L. Martin, 
 K. Morokuma, V. G. Zakrzewski, G. A. Voth, P. Salvador, 
 J. J. Dannenberg, S. Dapprich, P. V. Parandekar, N. J. Mayhall, 
 A. D. Daniels, O. Farkas, J. B. Foresman, J. V. Ortiz, 
 J. Cioslowski, and D. J. Fox, Gaussian, Inc., Wallingford CT, 2010.
 
 *******************************************
 Gaussian DV:  ES64L-GDVRevI.01+ 11-Sep-2014
                 22-Sep-2015 
 *******************************************
 -----------------------------------
 # hf/sto-3G gfinput pop=full nosymm
 -----------------------------------
 1/38=1,172=1/1;
 2/12=2,15=1,17=6,18=5,40=1/2;
 3/6=3,11=9,24=10,25=1,30=1/1,2,3;
 4//1;
 5/5=2,38=5/2;
 6/7=3,28=1/1;
 99/5=1,9=1/99;
 --------------
 Benzene STO-3G
 --------------
 Symbolic Z-matrix:
 Charge =  0 Multiplicity = 1
 C                    -0.64864   0.24131  -0.00045 
 C                     0.74652   0.24131  -0.00045 
 C                     1.44406   1.44906  -0.00045 
 C                     0.74641   2.65757  -0.00165 
 C                    -0.64842   2.65749  -0.00213 
 C                    -1.34602   1.44928  -0.00113 
 H                    -1.19839  -0.71101   0. 
 H                     1.29603  -0.71121   0.00087 
 H                     2.54374   1.44914   0.00018 
 H                     1.29661   3.60971  -0.00171 
 H                    -1.19854   3.60977  -0.00308 
 H                    -2.44562   1.44947  -0.00131 
 
                          Input orientation:                          
 ---------------------------------------------------------------------
 Center     Atomic      Atomic             Coordinates (Angstroms)
 Number     Number       Type             X           Y           Z
 ---------------------------------------------------------------------
      1          6           0       -0.648635    0.241308   -0.000450
      2          6           0        0.746525    0.241308   -0.000450
      3          6           0        1.444063    1.449059   -0.000450
      4          6           0        0.746409    2.657568   -0.001649
      5          6           0       -0.648416    2.657490   -0.002128
      6          6           0       -1.346017    1.449284   -0.001132
      7          1           0       -1.198394   -0.711009    0.000000
      8          1           0        1.296033   -0.711205    0.000865
      9          1           0        2.543743    1.449139    0.000184
     10          1           0        1.296609    3.609711   -0.001708
     11          1           0       -1.198538    3.609771   -0.003081
     12          1           0       -2.445621    1.449467   -0.001312
 ---------------------------------------------------------------------
                    Distance matrix (angstroms):
                    1          2          3          4          5
     1  C    0.000000
     2  C    1.395160   0.000000
     3  C    2.416205   1.394712   0.000000
     4  C    2.790065   2.416260   1.395427   0.000000
     5  C    2.416183   2.789946   2.416356   1.394825   0.000000
     6  C    1.394829   2.416183   2.790080   2.416236   1.395138
     7  H    1.099610   2.165553   3.412986   3.889675   3.413102
     8  H    2.165414   1.099655   2.165330   3.413316   3.889601
     9  H    3.413229   2.165375   1.099680   2.165806   3.413209
    10  H    3.889745   3.413024   2.165678   1.099680   2.165606
    11  H    3.413055   3.889707   3.413506   2.165528   1.099761
    12  H    2.165365   3.413128   3.889684   3.412999   2.165471
                    6          7          8          9         10
     6  C    0.000000
     7  H    2.165331   0.000000
     8  H    3.412938   2.494427   0.000000
     9  H    3.889760   4.320860   2.494768   0.000000
    10  H    3.413344   4.989355   4.320917   2.494678   0.000000
    11  H    2.165516   4.320781   4.989362   4.321228   2.495147
    12  H    1.099604   2.494641   4.320704   4.989364   4.320988
                   11         12
    11  H    0.000000
    12  H    2.494420   0.000000
 Symmetry turned off by external request.
 Stoichiometry    C6H6
 Framework group  C1[X(C6H6)]
 Deg. of freedom    30
 Full point group                 C1      NOp   1
 Rotational constants (GHZ):      5.6865650      5.6862640      2.8432074
 Standard basis: STO-3G (5D, 7F)
 AO basis set in the form of general basis input (Overlap normalization):
      1 0
 S   3 1.00       0.000000000000
      0.7161683735D+02  0.1543289673D+00
      0.1304509632D+02  0.5353281423D+00
      0.3530512160D+01  0.4446345422D+00
 SP   3 1.00       0.000000000000
      0.2941249355D+01 -0.9996722919D-01  0.1559162750D+00
      0.6834830964D+00  0.3995128261D+00  0.6076837186D+00
      0.2222899159D+00  0.7001154689D+00  0.3919573931D+00
 ****
      2 0
 S   3 1.00       0.000000000000
      0.7161683735D+02  0.1543289673D+00
      0.1304509632D+02  0.5353281423D+00
      0.3530512160D+01  0.4446345422D+00
 SP   3 1.00       0.000000000000
      0.2941249355D+01 -0.9996722919D-01  0.1559162750D+00
      0.6834830964D+00  0.3995128261D+00  0.6076837186D+00
      0.2222899159D+00  0.7001154689D+00  0.3919573931D+00
 ****
      3 0
 S   3 1.00       0.000000000000
      0.7161683735D+02  0.1543289673D+00
      0.1304509632D+02  0.5353281423D+00
      0.3530512160D+01  0.4446345422D+00
 SP   3 1.00       0.000000000000
      0.2941249355D+01 -0.9996722919D-01  0.1559162750D+00
      0.6834830964D+00  0.3995128261D+00  0.6076837186D+00
      0.2222899159D+00  0.7001154689D+00  0.3919573931D+00
 ****
      4 0
 S   3 1.00       0.000000000000
      0.7161683735D+02  0.1543289673D+00
      0.1304509632D+02  0.5353281423D+00
      0.3530512160D+01  0.4446345422D+00
 SP   3 1.00       0.000000000000
      0.2941249355D+01 -0.9996722919D-01  0.1559162750D+00
      0.6834830964D+00  0.3995128261D+00  0.6076837186D+00
      0.2222899159D+00  0.7001154689D+00  0.3919573931D+00
 ****
      5 0
 S   3 1.00       0.000000000000
      0.7161683735D+02  0.1543289673D+00
      0.1304509632D+02  0.5353281423D+00
      0.3530512160D+01  0.4446345422D+00
 SP   3 1.00       0.000000000000
      0.2941249355D+01 -0.9996722919D-01  0.1559162750D+00
      0.6834830964D+00  0.3995128261D+00  0.6076837186D+00
      0.2222899159D+00  0.7001154689D+00  0.3919573931D+00
 ****
      6 0
 S   3 1.00       0.000000000000
      0.7161683735D+02  0.1543289673D+00
      0.1304509632D+02  0.5353281423D+00
      0.3530512160D+01  0.4446345422D+00
 SP   3 1.00       0.000000000000
      0.2941249355D+01 -0.9996722919D-01  0.1559162750D+00
      0.6834830964D+00  0.3995128261D+00  0.6076837186D+00
      0.2222899159D+00  0.7001154689D+00  0.3919573931D+00
 ****
      7 0
 S   3 1.00       0.000000000000
      0.3425250914D+01  0.1543289673D+00
      0.6239137298D+00  0.5353281423D+00
      0.1688554040D+00  0.4446345422D+00
 ****
      8 0
 S   3 1.00       0.000000000000
      0.3425250914D+01  0.1543289673D+00
      0.6239137298D+00  0.5353281423D+00
      0.1688554040D+00  0.4446345422D+00
 ****
      9 0
 S   3 1.00       0.000000000000
      0.3425250914D+01  0.1543289673D+00
      0.6239137298D+00  0.5353281423D+00
      0.1688554040D+00  0.4446345422D+00
 ****
     10 0
 S   3 1.00       0.000000000000
      0.3425250914D+01  0.1543289673D+00
      0.6239137298D+00  0.5353281423D+00
      0.1688554040D+00  0.4446345422D+00
 ****
     11 0
 S   3 1.00       0.000000000000
      0.3425250914D+01  0.1543289673D+00
      0.6239137298D+00  0.5353281423D+00
      0.1688554040D+00  0.4446345422D+00
 ****
     12 0
 S   3 1.00       0.000000000000
      0.3425250914D+01  0.1543289673D+00
      0.6239137298D+00  0.5353281423D+00
      0.1688554040D+00  0.4446345422D+00
 ****

    36 basis functions,   108 primitive gaussians,    36 cartesian basis functions
    21 alpha electrons       21 beta electrons
       nuclear repulsion energy       203.0307491037 Hartrees.
 NAtoms=   12 NActive=   12 NUniq=   12 SFac= 1.00D+00 NAtFMM=   60 NAOKFM=F Big=F
 Integral buffers will be    131072 words long.
 Raffenetti 1 integral format.
 Two-electron integral symmetry is turned off.
 One-electron integrals computed using PRISM.
 NBasis=    36 RedAO= T EigKep=  1.72D-01  NBF=    36
 NBsUse=    36 1.00D-06 EigRej= -1.00D+00 NBFU=    36
 ExpMin= 1.69D-01 ExpMax= 7.16D+01 ExpMxC= 7.16D+01 IAcc=1 IRadAn=         1 AccDes= 0.00D+00
 Harris functional with IExCor=  205 and IRadAn=       1 diagonalized for initial guess.
 HarFok:  IExCor=  205 AccDes= 0.00D+00 IRadAn=         1 IDoV= 1 UseB2=F ITyADJ=14
 ICtDFT=  3500011 ScaDFX=  1.000000  1.000000  1.000000  1.000000
 FoFCou: FMM=F IPFlag=           0 FMFlag=      100000 FMFlg1=           0
         NFxFlg=           0 DoJE=T BraDBF=F KetDBF=T FulRan=T
         wScrn=  0.000000 ICntrl=       500 IOpCl=  0 I1Cent=   200000004 NGrid=           0
         NMat0=    1 NMatS0=      1 NMatT0=    0 NMatD0=    1 NMtDS0=    0 NMtDT0=    0
 Symmetry not used in FoFCou.
 Keep R1 ints in memory in canonical form, NReq=1044371.
 Requested convergence on RMS density matrix=1.00D-08 within 128 cycles.
 Requested convergence on MAX density matrix=1.00D-06.
 Requested convergence on             energy=1.00D-06.
 No special actions if energy rises.
 SCF Done:  E(RHF) =  -227.889409905     A.U. after   10 cycles
            NFock= 10  Conv=0.25D-08     -V/T= 2.0088

 **********************************************************************

            Population analysis using the SCF density.

 **********************************************************************

 Alpha  occ. eigenvalues --  -11.02930 -11.02930 -11.02927 -11.02894 -11.02894
 Alpha  occ. eigenvalues --  -11.02880  -1.08912  -0.95262  -0.95257  -0.76318
 Alpha  occ. eigenvalues --   -0.76312  -0.65724  -0.58760  -0.55243  -0.53041
 Alpha  occ. eigenvalues --   -0.53039  -0.45572  -0.42996  -0.42987  -0.27941
 Alpha  occ. eigenvalues --   -0.27934
 Alpha virt. eigenvalues --    0.26925   0.26934   0.50428   0.56473   0.63647
 Alpha virt. eigenvalues --    0.63660   0.70674   0.72600   0.72607   0.87495
 Alpha virt. eigenvalues --    0.87504   0.89400   0.89417   1.08778   1.14437
     Molecular Orbital Coefficients:
                           1         2         3         4         5
                           O         O         O         O         O
     Eigenvalues --   -11.02930 -11.02930 -11.02927 -11.02894 -11.02894
   1 1   C  1S         -0.38327  -0.32604   0.48673   0.51794  -0.22063
   2        2S         -0.01147  -0.00975   0.01155   0.02235  -0.00952
   3        2PX         0.00213  -0.00241  -0.00082   0.00221   0.00277
   4        2PY        -0.00102   0.00158  -0.00131   0.00078  -0.00248
   5        2PZ         0.00000   0.00000   0.00000   0.00000   0.00000
   6 2   C  1S         -0.48088   0.23415   0.44973  -0.44385  -0.35623
   7        2S         -0.01432   0.00656   0.01045  -0.01918  -0.01542
   8        2PX        -0.00121  -0.00289   0.00116   0.00282  -0.00207
   9        2PY        -0.00040  -0.00202  -0.00108  -0.00014  -0.00263
  10        2PZ         0.00000   0.00000   0.00000   0.00000   0.00000
  11 3   C  1S         -0.05453   0.60037   0.36414  -0.08468   0.56911
  12        2S         -0.00201   0.01732   0.00797  -0.00375   0.02477
  13        2PX         0.00013   0.00058   0.00144   0.00032  -0.00203
  14        2PY        -0.00368  -0.00062   0.00051  -0.00386  -0.00053
  15        2PZ         0.00000   0.00000   0.00000   0.00000   0.00000
  16 4   C  1S          0.48923   0.39755   0.31388   0.53784  -0.22195
  17        2S          0.01399   0.01140   0.00646   0.02346  -0.00973
  18        2PX         0.00237  -0.00233   0.00068  -0.00227  -0.00267
  19        2PY        -0.00076   0.00182   0.00124  -0.00092   0.00248
  20        2PZ         0.00000   0.00000   0.00000   0.00000   0.00000
  21 5   C  1S          0.58747  -0.17129   0.35452  -0.46773  -0.33329
  22        2S          0.01687  -0.00529   0.00772  -0.02041  -0.01456
  23        2PX        -0.00145  -0.00302  -0.00031  -0.00287   0.00209
  24        2PY        -0.00015  -0.00177   0.00147   0.00029   0.00260
  25        2PZ         0.00000   0.00000   0.00000   0.00000   0.00000
  26 6   C  1S          0.13983  -0.52552   0.43613  -0.05651   0.56908
  27        2S          0.00365  -0.01552   0.01003  -0.00240   0.02459
  28        2PX        -0.00029   0.00034  -0.00151  -0.00018   0.00197
  29        2PY        -0.00368  -0.00059   0.00050   0.00388   0.00044
  30        2PZ         0.00000   0.00000   0.00000   0.00000   0.00000
  31 7   H  1S          0.00247   0.00211  -0.00328  -0.00351   0.00150
  32 8   H  1S          0.00311  -0.00153  -0.00304   0.00301   0.00242
  33 9   H  1S          0.00034  -0.00391  -0.00248   0.00058  -0.00386
  34 10  H  1S         -0.00319  -0.00259  -0.00216  -0.00365   0.00151
  35 11  H  1S         -0.00383   0.00110  -0.00242   0.00318   0.00226
  36 12  H  1S         -0.00092   0.00340  -0.00295   0.00038  -0.00386
                           6         7         8         9        10
                           O         O         O         O         O
     Eigenvalues --   -11.02880  -1.08912  -0.95262  -0.95257  -0.76318
   1 1   C  1S          0.42119  -0.10465  -0.03751   0.14174  -0.10869
   2        2S          0.02162   0.26516   0.10148  -0.38346   0.32165
   3        2PX         0.00130   0.03149   0.11355   0.01465   0.02409
   4        2PY         0.00224   0.05460  -0.05668  -0.04199  -0.10333
   5        2PZ         0.00000  -0.00003   0.00004   0.00003   0.00005
   6 2   C  1S         -0.41498  -0.10466  -0.14155   0.03825   0.02363
   7        2S         -0.02131   0.26516   0.38293  -0.10350  -0.06990
   8        2PX         0.00136  -0.03148   0.01527   0.11348  -0.20658
   9        2PY        -0.00217   0.05460   0.04232   0.05647  -0.09984
  10        2PZ         0.00000   0.00001   0.00005  -0.00002  -0.00003
  11 3   C  1S          0.39670  -0.10461  -0.10400  -0.10337   0.08499
  12        2S          0.02054   0.26506   0.28136   0.27968  -0.25149
  13        2PX        -0.00250  -0.06301  -0.02135  -0.02119  -0.06052
  14        2PY        -0.00011  -0.00009  -0.09253   0.09280   0.15631
  15        2PZ         0.00000  -0.00005   0.00002  -0.00008  -0.00010
  16 4   C  1S         -0.38730  -0.10459   0.03762  -0.14173  -0.10868
  17        2S         -0.02010   0.26502  -0.10178   0.38347   0.32164
  18        2PX         0.00122  -0.03156   0.11357   0.01442  -0.02400
  19        2PY         0.00214  -0.05453  -0.05664  -0.04189   0.10322
  20        2PZ         0.00000   0.00004   0.00007   0.00005  -0.00005
  21 5   C  1S          0.39301  -0.10463   0.14151  -0.03842   0.02369
  22        2S          0.02040   0.26510  -0.38284   0.10394  -0.07014
  23        2PX         0.00116   0.03152   0.01509   0.11354   0.20663
  24        2PY        -0.00221  -0.05457   0.04224   0.05644   0.09977
  25        2PZ         0.00000   0.00006  -0.00005  -0.00001  -0.00003
  26 6   C  1S         -0.41410  -0.10465   0.10394   0.10342   0.08504
  27        2S         -0.02126   0.26515  -0.28120  -0.27977  -0.25168
  28        2PX        -0.00255   0.06303  -0.02131  -0.02118   0.06061
  29        2PY         0.00011  -0.00004  -0.09236   0.09302  -0.15638
  30        2PZ         0.00000  -0.00001   0.00008  -0.00004   0.00013
  31 7   H  1S         -0.00295   0.04583   0.02728  -0.10309   0.16709
  32 8   H  1S          0.00291   0.04582   0.10292  -0.02783  -0.03627
  33 9   H  1S         -0.00278   0.04580   0.07561   0.07518  -0.13061
  34 10  H  1S          0.00272   0.04579  -0.02734   0.10307   0.16704
  35 11  H  1S         -0.00276   0.04580  -0.10288   0.02792  -0.03647
  36 12  H  1S          0.00290   0.04583  -0.07559  -0.07521  -0.13076
                          11        12        13        14        15
                           O         O         O         O         O
     Eigenvalues --    -0.76312  -0.65724  -0.58760  -0.55243  -0.53041
   1 1   C  1S          0.03538   0.00936  -0.06506  -0.00004  -0.00171
   2        2S         -0.10469  -0.03863   0.22017   0.00015   0.00537
   3        2PX         0.20519   0.11700  -0.08193   0.28778   0.09859
   4        2PY        -0.08935   0.20280  -0.14172  -0.16571  -0.02966
   5        2PZ         0.00006  -0.00011   0.00003   0.00006  -0.00007
   6 2   C  1S         -0.11182   0.00938   0.06507   0.00003  -0.02314
   7        2S          0.33092  -0.03871  -0.22020  -0.00006   0.07203
   8        2PX        -0.00219  -0.11701  -0.08159  -0.28782  -0.12680
   9        2PY        -0.09329   0.20281   0.14160  -0.16595   0.30848
  10        2PZ         0.00011  -0.00019  -0.00016  -0.00003  -0.00035
  11 3   C  1S          0.07645   0.00936  -0.06506   0.00000  -0.02150
  12        2S         -0.22631  -0.03864   0.22018   0.00011   0.06694
  13        2PX        -0.05452  -0.23403   0.16367   0.00041  -0.30653
  14        2PY        -0.17394  -0.00001  -0.00001   0.33205  -0.05564
  15        2PZ         0.00007  -0.00014   0.00008  -0.00015  -0.00029
  16 4   C  1S          0.03546   0.00939   0.06506   0.00005   0.00169
  17        2S         -0.10499  -0.03872  -0.22016  -0.00010  -0.00524
  18        2PX        -0.20523  -0.11702  -0.08199   0.28773   0.09881
  19        2PY         0.08925  -0.20266  -0.14162  -0.16578  -0.02922
  20        2PZ        -0.00016   0.00005   0.00000   0.00028  -0.00006
  21 5   C  1S         -0.11182   0.00938  -0.06508   0.00000   0.02313
  22        2S          0.33093  -0.03872   0.22023   0.00002  -0.07204
  23        2PX         0.00202   0.11705  -0.08167  -0.28772  -0.12699
  24        2PY         0.09313  -0.20268   0.14157  -0.16614   0.30810
  25        2PZ        -0.00007   0.00018  -0.00020   0.00009  -0.00039
  26 6   C  1S          0.07637   0.00936   0.06506   0.00000   0.02152
  27        2S         -0.22599  -0.03865  -0.22017   0.00003  -0.06704
  28        2PX         0.05445   0.23412   0.16364   0.00044  -0.30627
  29        2PY         0.17395  -0.00010  -0.00007   0.33207  -0.05532
  30        2PZ        -0.00010   0.00002  -0.00004  -0.00025  -0.00006
  31 7   H  1S         -0.05439  -0.17648   0.23260  -0.00023  -0.01817
  32 8   H  1S          0.17192  -0.17651  -0.23239  -0.00012  -0.25587
  33 9   H  1S         -0.11758  -0.17640   0.23258   0.00041  -0.23719
  34 10  H  1S         -0.05460  -0.17644  -0.23255   0.00028   0.01865
  35 11  H  1S          0.17187  -0.17644   0.23240   0.00005   0.25566
  36 12  H  1S         -0.11741  -0.17648  -0.23256  -0.00031   0.23693
                          16        17        18        19        20
                           O         O         O         O         O
     Eigenvalues --    -0.53039  -0.45572  -0.42996  -0.42987  -0.27941
   1 1   C  1S         -0.02579  -0.00001   0.00650  -0.00334   0.00000
   2        2S          0.08034   0.00004  -0.01269   0.00642  -0.00001
   3        2PX         0.17770   0.00009  -0.25753  -0.18914   0.00005
   4        2PY         0.32191   0.00011  -0.14068   0.25929   0.00004
   5        2PZ        -0.00017   0.33434   0.00012  -0.00001   0.17832
   6 2   C  1S         -0.01143   0.00004  -0.00029   0.00732   0.00006
   7        2S          0.03562  -0.00017   0.00048  -0.01425  -0.00027
   8        2PX        -0.15891  -0.00022   0.28015   0.15365  -0.00021
   9        2PY         0.09635   0.00034   0.17571  -0.23696   0.00036
  10        2PZ        -0.00009   0.33434   0.00000   0.00032   0.52303
  11 3   C  1S          0.01433  -0.00003  -0.00614  -0.00397  -0.00002
  12        2S         -0.04469   0.00012   0.01189   0.00784   0.00007
  13        2PX         0.20442  -0.00030  -0.23789  -0.15202  -0.00026
  14        2PY        -0.08368   0.00012  -0.17778   0.27903   0.00007
  15        2PZ         0.00021   0.33424  -0.00010  -0.00019   0.34462
  16 4   C  1S          0.02579   0.00002   0.00648  -0.00340  -0.00001
  17        2S         -0.08034  -0.00009  -0.01258   0.00672   0.00006
  18        2PX         0.17803  -0.00021   0.25730   0.18896   0.00009
  19        2PY         0.32174   0.00018   0.14050  -0.25984  -0.00005
  20        2PZ        -0.00007   0.33420   0.00010   0.00024  -0.17890
  21 5   C  1S          0.01141   0.00001  -0.00036   0.00731  -0.00001
  22        2S         -0.03550  -0.00003   0.00079  -0.01421   0.00002
  23        2PX        -0.15932  -0.00007  -0.27983  -0.15361   0.00009
  24        2PY         0.09673   0.00039  -0.17627   0.23698  -0.00053
  25        2PZ        -0.00011   0.33429   0.00017  -0.00029  -0.52293
  26 6   C  1S         -0.01432   0.00001  -0.00618  -0.00391   0.00002
  27        2S          0.04458  -0.00002   0.01207   0.00754  -0.00007
  28        2PX         0.20474  -0.00015   0.23822   0.15151  -0.00002
  29        2PY        -0.08389   0.00025   0.17790  -0.27888  -0.00017
  30        2PZ         0.00006   0.33433  -0.00008   0.00024  -0.34419
  31 7   H  1S         -0.28447   0.00003   0.26714  -0.13869   0.00004
  32 8   H  1S         -0.12604  -0.00015  -0.01305   0.30073   0.00001
  33 9   H  1S          0.15818  -0.00003  -0.25369  -0.16200  -0.00003
  34 10  H  1S          0.28449  -0.00005   0.26695  -0.13907   0.00009
  35 11  H  1S          0.12656   0.00008  -0.01344   0.30074  -0.00007
  36 12  H  1S         -0.15851   0.00010  -0.25392  -0.16165   0.00006
                          21        22        23        24        25
                           O         V         V         V         V
     Eigenvalues --    -0.27934   0.26925   0.26934   0.50428   0.56473
   1 1   C  1S         -0.00001  -0.00002  -0.00004  -0.00002   0.05237
   2        2S          0.00006   0.00010   0.00020   0.00012  -0.32722
   3        2PX         0.00010   0.00005   0.00011  -0.00038   0.15579
   4        2PY         0.00022   0.00031  -0.00006   0.00019   0.27009
   5        2PZ         0.50087   0.61318  -0.23891   0.52227   0.00034
   6 2   C  1S          0.00001  -0.00002   0.00009  -0.00014   0.05229
   7        2S         -0.00007   0.00012  -0.00050   0.00087  -0.32675
   8        2PX        -0.00007   0.00012  -0.00027   0.00032  -0.15598
   9        2PY         0.00007  -0.00003   0.00048  -0.00065   0.27028
  10        2PZ         0.09536  -0.09901   0.65062  -0.52226  -0.00084
  11 3   C  1S          0.00002   0.00003  -0.00001  -0.00001   0.05239
  12        2S         -0.00010  -0.00015   0.00002   0.00008  -0.32736
  13        2PX         0.00032   0.00037   0.00023  -0.00011  -0.31202
  14        2PY        -0.00020  -0.00015  -0.00031   0.00038  -0.00009
  15        2PZ        -0.40493  -0.51355  -0.41167   0.52211   0.00027
  16 4   C  1S         -0.00002   0.00002  -0.00003  -0.00009   0.05236
  17        2S          0.00008  -0.00013   0.00015   0.00053  -0.32716
  18        2PX         0.00028  -0.00033   0.00012   0.00029  -0.15604
  19        2PY        -0.00027   0.00031  -0.00013  -0.00001  -0.27035
  20        2PZ        -0.50076   0.61306  -0.23955  -0.52205  -0.00043
  21 5   C  1S          0.00000  -0.00003   0.00001  -0.00002   0.05235
  22        2S          0.00002   0.00013  -0.00008   0.00009  -0.32706
  23        2PX         0.00002   0.00006  -0.00017  -0.00040   0.15625
  24        2PY        -0.00011  -0.00014   0.00061   0.00061  -0.27049
  25        2PZ        -0.09607  -0.09978   0.65054   0.52219   0.00073
  26 6   C  1S         -0.00002   0.00004   0.00002  -0.00002   0.05235
  27        2S          0.00010  -0.00020  -0.00010   0.00013  -0.32712
  28        2PX         0.00000   0.00001   0.00002  -0.00016   0.31193
  29        2PY         0.00036  -0.00043  -0.00020  -0.00031  -0.00022
  30        2PZ         0.40522  -0.51384  -0.41117  -0.52225  -0.00038
  31 7   H  1S          0.00000  -0.00006  -0.00005  -0.00033   0.50445
  32 8   H  1S         -0.00005  -0.00010   0.00026  -0.00073   0.50443
  33 9   H  1S          0.00006   0.00004  -0.00001  -0.00023   0.50472
  34 10  H  1S         -0.00001   0.00005  -0.00014  -0.00056   0.50476
  35 11  H  1S         -0.00004  -0.00003  -0.00003  -0.00038   0.50490
  36 12  H  1S         -0.00001   0.00011   0.00002  -0.00036   0.50452
                          26        27        28        29        30
                           V         V         V         V         V
     Eigenvalues --     0.63647   0.63660   0.70674   0.72600   0.72607
   1 1   C  1S         -0.01545   0.02866   0.11817  -0.16082   0.00461
   2        2S          0.09859  -0.18300  -0.73408   1.03295  -0.02964
   3        2PX         0.09970   0.36586   0.03657  -0.01458  -0.35908
   4        2PY        -0.35551   0.35262   0.06394  -0.00251   0.20881
   5        2PZ         0.00008  -0.00017  -0.00016  -0.00001  -0.00037
   6 2   C  1S         -0.03250   0.00147  -0.11851   0.07694  -0.14100
   7        2S          0.20743  -0.00928   0.73622  -0.49421   0.90579
   8        2PX         0.28596   0.24877   0.03781   0.31392   0.17514
   9        2PY        -0.47213   0.16633  -0.06297   0.18774   0.09160
  10        2PZ         0.00060  -0.00007   0.00054  -0.00030   0.00056
  11 3   C  1S         -0.01705  -0.02775   0.11923   0.08361   0.13655
  12        2S          0.10898   0.17706  -0.74081  -0.53715  -0.87711
  13        2PX         0.29393   0.46752  -0.07354  -0.00522  -0.00735
  14        2PY        -0.25388   0.15827  -0.00192  -0.35462   0.21722
  15        2PZ         0.00029   0.00026  -0.00019   0.00030  -0.00012
  16 4   C  1S          0.01493  -0.02883  -0.11963  -0.15982   0.00435
  17        2S         -0.09548   0.18402   0.74336   1.02665  -0.02792
  18        2PX         0.09973   0.36445   0.03719   0.01505   0.36054
  19        2PY        -0.35650   0.35272   0.06379   0.00168  -0.20766
  20        2PZ         0.00014   0.00003   0.00023   0.00021   0.00027
  21 5   C  1S          0.03255  -0.00092   0.11918   0.07560  -0.14116
  22        2S         -0.20776   0.00596  -0.74051  -0.48567   0.90677
  23        2PX         0.28483   0.24845   0.03542  -0.31506  -0.17571
  24        2PY        -0.47269   0.16722  -0.06432  -0.18565  -0.09122
  25        2PZ         0.00059  -0.00013  -0.00008  -0.00009   0.00006
  26 6   C  1S          0.01742   0.02745  -0.11850   0.08449   0.13663
  27        2S         -0.11116  -0.17531   0.73616  -0.54262  -0.87769
  28        2PX         0.29265   0.46824  -0.07367   0.00450   0.00854
  29        2PY        -0.25297   0.15939   0.00176   0.35387  -0.21817
  30        2PZ         0.00017  -0.00007  -0.00004  -0.00008   0.00039
  31 7   H  1S         -0.30596   0.57703   0.44577  -0.49786   0.01519
  32 8   H  1S         -0.65256   0.02434  -0.44658   0.23927  -0.43631
  33 9   H  1S         -0.34672  -0.55341   0.44890   0.25900   0.42198
  34 10  H  1S          0.30504  -0.57697  -0.45038  -0.49419   0.01273
  35 11  H  1S          0.65258  -0.02337   0.44857   0.23274  -0.43731
  36 12  H  1S          0.34672   0.55321  -0.44680   0.26113   0.42338
                          31        32        33        34        35
                           V         V         V         V         V
     Eigenvalues --     0.87495   0.87504   0.89400   0.89417   1.08778
   1 1   C  1S          0.03576  -0.01518   0.03227  -0.08895   0.00024
   2        2S         -0.25738   0.10908  -0.23083   0.63603  -0.00167
   3        2PX        -0.29926   0.35653   0.69594   0.21611  -0.65679
   4        2PY        -0.69177   0.13613  -0.38978  -0.18714   0.37570
   5        2PZ         0.00035  -0.00014   0.00035   0.00007  -0.00010
   6 2   C  1S         -0.00663   0.03854   0.09290  -0.01762  -0.00023
   7        2S          0.04756  -0.27732  -0.66428   0.12609   0.00158
   8        2PX        -0.27657   0.37300   0.10114   0.72249  -0.65678
   9        2PY        -0.02616  -0.70463   0.12390   0.41418  -0.37602
  10        2PZ        -0.00003   0.00055  -0.00046   0.00004  -0.00006
  11 3   C  1S         -0.03110  -0.02341   0.06083   0.07239   0.00010
  12        2S          0.22360   0.16859  -0.43479  -0.51770  -0.00051
  13        2PX        -0.63087  -0.50050  -0.04142  -0.03660   0.00234
  14        2PY         0.16505  -0.19564  -0.64209   0.55052  -0.75598
  15        2PZ        -0.00055  -0.00030   0.00052  -0.00011   0.00032
  16 4   C  1S          0.03658  -0.01354  -0.03111   0.08919  -0.00016
  17        2S         -0.26310   0.09757   0.22230  -0.63779   0.00096
  18        2PX         0.28597  -0.35124   0.70282   0.22326   0.65324
  19        2PY         0.69865  -0.14154  -0.37528  -0.18600  -0.37994
  20        2PZ        -0.00024  -0.00001   0.00051   0.00006   0.00063
  21 5   C  1S         -0.00470   0.03865  -0.09311   0.01662   0.00027
  22        2S          0.03400  -0.27811   0.66580  -0.11873  -0.00190
  23        2PX         0.27636  -0.35944   0.10936   0.72883   0.65371
  24        2PY         0.02311   0.71212   0.12350   0.40056   0.38066
  25        2PZ         0.00002  -0.00077   0.00007  -0.00013  -0.00022
  26 6   C  1S         -0.02992  -0.02498  -0.06178  -0.07164  -0.00023
  27        2S          0.21539   0.17963   0.44177   0.51222   0.00163
  28        2PX         0.63199   0.49892  -0.02983  -0.04726   0.00309
  29        2PY        -0.15176   0.20399  -0.64581   0.54659   0.75660
  30        2PZ         0.00011  -0.00010   0.00029  -0.00050  -0.00058
  31 7   H  1S         -0.47961   0.18704   0.09020  -0.26756  -0.00138
  32 8   H  1S          0.07115  -0.50903   0.27973  -0.04675   0.00112
  33 9   H  1S          0.40161   0.32180   0.18631   0.21222  -0.00128
  34 10  H  1S         -0.47690   0.19285  -0.09934   0.26467   0.00109
  35 11  H  1S          0.07812  -0.50842  -0.27682   0.05566  -0.00110
  36 12  H  1S          0.40554   0.31657  -0.18005  -0.21835   0.00139
                          36
                           V
     Eigenvalues --     1.14437
   1 1   C  1S          0.06370
   2        2S         -0.48197
   3        2PX        -0.33257
   4        2PY        -0.58211
   5        2PZ         0.00033
   6 2   C  1S         -0.06374
   7        2S          0.48228
   8        2PX        -0.33230
   9        2PY         0.58212
  10        2PZ        -0.00033
  11 3   C  1S          0.06368
  12        2S         -0.48178
  13        2PX         0.67009
  14        2PY         0.00348
  15        2PZ         0.00046
  16 4   C  1S         -0.06366
  17        2S          0.48162
  18        2PX        -0.33798
  19        2PY        -0.57848
  20        2PZ         0.00023
  21 5   C  1S          0.06373
  22        2S         -0.48221
  23        2PX        -0.33773
  24        2PY         0.57878
  25        2PZ        -0.00059
  26 6   C  1S         -0.06371
  27        2S          0.48202
  28        2PX         0.67034
  29        2PY        -0.00306
  30        2PZ        -0.00001
  31 7   H  1S         -0.26463
  32 8   H  1S          0.26444
  33 9   H  1S         -0.26446
  34 10  H  1S          0.26443
  35 11  H  1S         -0.26431
  36 12  H  1S          0.26458
     Density Matrix:
                           1         2         3         4         5
   1 1   C  1S          2.07001
   2        2S         -0.21094   0.80028
   3        2PX         0.00087  -0.01019   0.60683
   4        2PY         0.00151  -0.01779   0.00591   0.61367
   5        2PZ        -0.00001   0.00007   0.00008   0.00006   0.78890
   6 2   C  1S          0.02422  -0.06315  -0.11098  -0.00050   0.00006
   7        2S         -0.06315   0.09475   0.29172   0.00739  -0.00026
   8        2PX         0.11098  -0.29173  -0.46959   0.00552  -0.00018
   9        2PY        -0.00051   0.00744  -0.00546   0.00226   0.00032
  10        2PZ         0.00001  -0.00006  -0.00007   0.00025   0.50563
  11 3   C  1S         -0.00465   0.01465   0.02069   0.01012  -0.00001
  12        2S          0.01465  -0.03780  -0.07297  -0.04416   0.00001
  13        2PX        -0.01911   0.07474   0.07615   0.01600   0.00001
  14        2PY        -0.01284   0.04106   0.05424   0.03556  -0.00008
  15        2PZ        -0.00001   0.00001   0.00005  -0.00002  -0.05923
  16 4   C  1S         -0.00436   0.01520   0.00593   0.01025  -0.00002
  17        2S          0.01520  -0.05185  -0.02148  -0.03711   0.00007
  18        2PX        -0.00591   0.02139  -0.03075   0.03887   0.00019
  19        2PY        -0.01026   0.03717   0.03895   0.01418  -0.00021
  20        2PZ         0.00001  -0.00005  -0.00011  -0.00015  -0.34196
  21 5   C  1S         -0.00465   0.01465  -0.00157   0.02298  -0.00001
  22        2S          0.01465  -0.03781  -0.00179  -0.08527   0.00004
  23        2PX        -0.00158  -0.00176   0.01529   0.01914  -0.00002
  24        2PY        -0.02298   0.08528  -0.01912   0.09644  -0.00009
  25        2PZ         0.00003  -0.00008  -0.00002  -0.00012  -0.05921
  26 6   C  1S          0.02424  -0.06319   0.05508  -0.09639   0.00003
  27        2S         -0.06319   0.09475  -0.13947   0.25633  -0.00005
  28        2PX        -0.05594   0.15222  -0.11564   0.19877  -0.00012
  29        2PY         0.09589  -0.24894   0.20986  -0.35159   0.00059
  30        2PZ        -0.00007   0.00023  -0.00009   0.00050   0.50672
  31 7   H  1S         -0.10871   0.28888  -0.27757  -0.48084   0.00026
  32 8   H  1S          0.02714  -0.10019  -0.11127   0.06042  -0.00002
  33 9   H  1S         -0.01718   0.06584   0.08996   0.00379  -0.00001
  34 10  H  1S         -0.00199   0.00716   0.00221   0.00376  -0.00001
  35 11  H  1S         -0.01717   0.06579  -0.04168   0.07975  -0.00003
  36 12  H  1S          0.02713  -0.10012   0.10796  -0.06611   0.00002
                           6         7         8         9        10
   6 2   C  1S          2.07001
   7        2S         -0.21093   0.80024
   8        2PX        -0.00088   0.01019   0.60684
   9        2PY         0.00150  -0.01779  -0.00592   0.61368
  10        2PZ         0.00006  -0.00026  -0.00007   0.00011   0.78888
  11 3   C  1S          0.02425  -0.06320  -0.05509  -0.09640   0.00000
  12        2S         -0.06320   0.09476   0.13948   0.25628   0.00003
  13        2PX         0.05596  -0.15227  -0.11566  -0.19880  -0.00031
  14        2PY         0.09590  -0.24895  -0.20988  -0.35149   0.00027
  15        2PZ         0.00005  -0.00022  -0.00021   0.00035   0.50676
  16 4   C  1S         -0.00465   0.01465   0.00157   0.02297  -0.00001
  17        2S          0.01466  -0.03783   0.00177  -0.08528   0.00007
  18        2PX         0.00158   0.00173   0.01528  -0.01915   0.00005
  19        2PY        -0.02299   0.08528   0.01914   0.09643  -0.00005
  20        2PZ         0.00001   0.00000   0.00003  -0.00012  -0.05918
  21 5   C  1S         -0.00436   0.01520  -0.00593   0.01024  -0.00001
  22        2S          0.01520  -0.05183   0.02149  -0.03709   0.00003
  23        2PX         0.00591  -0.02138  -0.03073  -0.03884   0.00005
  24        2PY        -0.01026   0.03715  -0.03894   0.01418  -0.00033
  25        2PZ        -0.00003   0.00016   0.00017  -0.00023  -0.34181
  26 6   C  1S         -0.00465   0.01465  -0.02069   0.01013   0.00000
  27        2S          0.01465  -0.03782   0.07298  -0.04417   0.00002
  28        2PX         0.01911  -0.07473   0.07615  -0.01601   0.00002
  29        2PY        -0.01285   0.04108  -0.05427   0.03557  -0.00005
  30        2PZ         0.00000   0.00000   0.00005  -0.00006  -0.05920
  31 7   H  1S          0.02713  -0.10016   0.11125   0.06041   0.00001
  32 8   H  1S         -0.10869   0.28885   0.27753  -0.48091   0.00050
  33 9   H  1S          0.02714  -0.10013  -0.10796  -0.06609  -0.00004
  34 10  H  1S         -0.01716   0.06576   0.04166   0.07969   0.00003
  35 11  H  1S         -0.00198   0.00714  -0.00220   0.00375  -0.00002
  36 12  H  1S         -0.01717   0.06583  -0.08995   0.00380   0.00001
                          11        12        13        14        15
  11 3   C  1S          2.07001
  12        2S         -0.21095   0.80035
  13        2PX        -0.00174   0.02050   0.61705
  14        2PY         0.00000   0.00014   0.00000   0.60341
  15        2PZ        -0.00003   0.00015  -0.00017   0.00005   0.78890
  16 4   C  1S          0.02421  -0.06313   0.05590  -0.09584   0.00011
  17        2S         -0.06313   0.09474  -0.15223   0.24895  -0.00031
  18        2PX        -0.05504   0.13945  -0.11568   0.20982  -0.00049
  19        2PY         0.09634  -0.25636   0.19879  -0.35170   0.00061
  20        2PZ        -0.00012   0.00035  -0.00055   0.00059   0.50565
  21 5   C  1S         -0.00465   0.01466  -0.01911   0.01287  -0.00002
  22        2S          0.01465  -0.03783   0.07471  -0.04115   0.00006
  23        2PX         0.02068  -0.07297   0.07612  -0.05430   0.00010
  24        2PY        -0.01012   0.04417  -0.01600   0.03557  -0.00008
  25        2PZ         0.00002  -0.00006   0.00007  -0.00003  -0.05915
  26 6   C  1S         -0.00436   0.01520  -0.01184   0.00001   0.00002
  27        2S          0.01520  -0.05185   0.04288  -0.00006  -0.00009
  28        2PX         0.01184  -0.04287   0.03664  -0.00004   0.00000
  29        2PY         0.00001  -0.00004   0.00003  -0.05321  -0.00023
  30        2PZ         0.00002  -0.00008   0.00025  -0.00009  -0.34191
  31 7   H  1S         -0.01717   0.06578  -0.04822  -0.07594   0.00000
  32 8   H  1S          0.02714  -0.10011   0.00328   0.12655  -0.00002
  33 9   H  1S         -0.10871   0.28890   0.55520   0.00001   0.00030
  34 10  H  1S          0.02713  -0.10020   0.00334  -0.12658   0.00009
  35 11  H  1S         -0.01718   0.06584  -0.04826   0.07603  -0.00007
  36 12  H  1S         -0.00199   0.00714  -0.00436   0.00002   0.00005
                          16        17        18        19        20
  16 4   C  1S          2.07001
  17        2S         -0.21096   0.80039
  18        2PX        -0.00086   0.01032   0.60679
  19        2PY        -0.00152   0.01769   0.00591   0.61364
  20        2PZ         0.00002  -0.00011  -0.00011   0.00010   0.78892
  21 5   C  1S          0.02424  -0.06320   0.11102   0.00049   0.00006
  22        2S         -0.06320   0.09478  -0.29171  -0.00734  -0.00017
  23        2PX        -0.11103   0.29173  -0.46948   0.00555  -0.00034
  24        2PY         0.00049  -0.00735  -0.00557   0.00235   0.00045
  25        2PZ        -0.00001  -0.00002  -0.00037   0.00030   0.50677
  26 6   C  1S         -0.00465   0.01465  -0.02068  -0.01012   0.00000
  27        2S          0.01465  -0.03782   0.07294   0.04417  -0.00004
  28        2PX         0.01912  -0.07474   0.07614   0.01600   0.00003
  29        2PY         0.01286  -0.04113   0.05426   0.03557  -0.00007
  30        2PZ        -0.00001   0.00002  -0.00001  -0.00008  -0.05921
  31 7   H  1S         -0.00199   0.00714  -0.00216  -0.00379   0.00001
  32 8   H  1S         -0.01718   0.06585   0.04171  -0.07983   0.00008
  33 9   H  1S          0.02713  -0.10016  -0.10793   0.06618  -0.00014
  34 10  H  1S         -0.10871   0.28889   0.27767   0.48078  -0.00011
  35 11  H  1S          0.02714  -0.10011   0.11123  -0.06043   0.00013
  36 12  H  1S         -0.01717   0.06579  -0.08988  -0.00377  -0.00006
                          21        22        23        24        25
  21 5   C  1S          2.07001
  22        2S         -0.21094   0.80030
  23        2PX         0.00087  -0.01032   0.60681
  24        2PY        -0.00151   0.01773  -0.00592   0.61366
  25        2PZ         0.00001  -0.00005  -0.00001   0.00019   0.78889
  26 6   C  1S          0.02422  -0.06315   0.05505   0.09636  -0.00009
  27        2S         -0.06315   0.09474  -0.13943  -0.25634   0.00027
  28        2PX        -0.05593   0.15228  -0.11570  -0.19883   0.00012
  29        2PY        -0.09587   0.24894  -0.20980  -0.35163   0.00061
  30        2PZ         0.00008  -0.00021   0.00007   0.00073   0.50565
  31 7   H  1S         -0.01717   0.06583  -0.04168  -0.07979   0.00007
  32 8   H  1S         -0.00198   0.00714   0.00215  -0.00379  -0.00005
  33 9   H  1S         -0.01716   0.06576   0.08985  -0.00377   0.00003
  34 10  H  1S          0.02713  -0.10010  -0.11122  -0.06044   0.00000
  35 11  H  1S         -0.10869   0.28887  -0.27768   0.48082  -0.00043
  36 12  H  1S          0.02713  -0.10018   0.10794   0.06614  -0.00007
                          26        27        28        29        30
  26 6   C  1S          2.07001
  27        2S         -0.21093   0.80027
  28        2PX         0.00174  -0.02049   0.61708
  29        2PY         0.00001   0.00005  -0.00001   0.60343
  30        2PZ        -0.00002   0.00009   0.00000   0.00014   0.78889
  31 7   H  1S          0.02714  -0.10013  -0.00327   0.12655  -0.00010
  32 8   H  1S         -0.01717   0.06579   0.04821  -0.07597  -0.00001
  33 9   H  1S         -0.00199   0.00715   0.00436   0.00003   0.00003
  34 10  H  1S         -0.01717   0.06582   0.04826   0.07600  -0.00012
  35 11  H  1S          0.02714  -0.10018  -0.00331  -0.12657   0.00011
  36 12  H  1S         -0.10871   0.28887  -0.55521   0.00007  -0.00007
                          31        32        33        34        35
  31 7   H  1S          0.60298
  32 8   H  1S         -0.07046   0.60302
  33 9   H  1S         -0.03955  -0.07052   0.60299
  34 10  H  1S          0.01597  -0.03956  -0.07039   0.60299
  35 11  H  1S         -0.03956   0.01599  -0.03956  -0.07049   0.60304
  36 12  H  1S         -0.07049  -0.03956   0.01598  -0.03955  -0.07047
                          36
  36 12  H  1S          0.60298
    Full Mulliken population analysis:
                           1         2         3         4         5
   1 1   C  1S          2.07001
   2        2S         -0.05239   0.80028
   3        2PX         0.00000   0.00000   0.60683
   4        2PY         0.00000   0.00000   0.00000   0.61367
   5        2PZ         0.00000   0.00000   0.00000   0.00000   0.78890
   6 2   C  1S          0.00000  -0.00240  -0.00698   0.00000   0.00000
   7        2S         -0.00240   0.03478   0.11367   0.00000   0.00000
   8        2PX        -0.00698   0.11367   0.15407   0.00000   0.00000
   9        2PY         0.00000   0.00000   0.00000   0.00048   0.00000
  10        2PZ         0.00000   0.00000   0.00000   0.00000   0.10866
  11 3   C  1S          0.00000   0.00003   0.00008   0.00002   0.00000
  12        2S          0.00003  -0.00232  -0.00570  -0.00199   0.00000
  13        2PX         0.00007  -0.00584  -0.00641  -0.00101   0.00000
  14        2PY         0.00003  -0.00185  -0.00344  -0.00039   0.00000
  15        2PZ         0.00000   0.00000   0.00000   0.00000  -0.00152
  16 4   C  1S          0.00000   0.00001   0.00000   0.00001   0.00000
  17        2S          0.00001  -0.00137  -0.00046  -0.00136   0.00000
  18        2PX         0.00000  -0.00045   0.00025  -0.00124   0.00000
  19        2PY         0.00001  -0.00136  -0.00124  -0.00064   0.00000
  20        2PZ         0.00000   0.00000   0.00000   0.00000  -0.00348
  21 5   C  1S          0.00000   0.00003   0.00000   0.00010   0.00000
  22        2S          0.00003  -0.00232   0.00000  -0.00769   0.00000
  23        2PX         0.00000   0.00000   0.00039   0.00000   0.00000
  24        2PY         0.00010  -0.00769   0.00000  -0.01165   0.00000
  25        2PZ         0.00000   0.00000   0.00000   0.00000  -0.00152
  26 6   C  1S          0.00000  -0.00240  -0.00173  -0.00526   0.00000
  27        2S         -0.00240   0.03479   0.02718   0.08652   0.00000
  28        2PX        -0.00176   0.02966  -0.00917   0.04675   0.00000
  29        2PY        -0.00523   0.08403   0.04935   0.06762   0.00000
  30        2PZ         0.00000   0.00000   0.00000   0.00000   0.10896
  31 7   H  1S         -0.00662   0.14018   0.06438   0.19321   0.00000
  32 8   H  1S          0.00014  -0.00958  -0.01235  -0.00328   0.00000
  33 9   H  1S          0.00000   0.00042   0.00090   0.00001   0.00000
  34 10  H  1S          0.00000   0.00001   0.00000   0.00001   0.00000
  35 11  H  1S          0.00000   0.00042   0.00007   0.00084   0.00000
  36 12  H  1S          0.00014  -0.00957  -0.01107  -0.00456   0.00000
                           6         7         8         9        10
   6 2   C  1S          2.07001
   7        2S         -0.05239   0.80024
   8        2PX         0.00000   0.00000   0.60684
   9        2PY         0.00000   0.00000   0.00000   0.61368
  10        2PZ         0.00000   0.00000   0.00000   0.00000   0.78888
  11 3   C  1S          0.00000  -0.00240  -0.00174  -0.00526   0.00000
  12        2S         -0.00240   0.03480   0.02719   0.08651   0.00000
  13        2PX        -0.00176   0.02969  -0.00916   0.04677   0.00000
  14        2PY        -0.00523   0.08403   0.04937   0.06757   0.00000
  15        2PZ         0.00000   0.00000   0.00000   0.00000   0.10899
  16 4   C  1S          0.00000   0.00003   0.00000   0.00010   0.00000
  17        2S          0.00003  -0.00232   0.00000  -0.00769   0.00000
  18        2PX         0.00000   0.00000   0.00039   0.00000   0.00000
  19        2PY         0.00010  -0.00769   0.00000  -0.01164   0.00000
  20        2PZ         0.00000   0.00000   0.00000   0.00000  -0.00152
  21 5   C  1S          0.00000   0.00001   0.00000   0.00001   0.00000
  22        2S          0.00001  -0.00137  -0.00046  -0.00136   0.00000
  23        2PX         0.00000  -0.00045   0.00025  -0.00123   0.00000
  24        2PY         0.00001  -0.00136  -0.00124  -0.00064   0.00000
  25        2PZ         0.00000   0.00000   0.00000   0.00000  -0.00348
  26 6   C  1S          0.00000   0.00003   0.00008   0.00002   0.00000
  27        2S          0.00003  -0.00232  -0.00570  -0.00199   0.00000
  28        2PX         0.00007  -0.00583  -0.00641  -0.00101   0.00000
  29        2PY         0.00003  -0.00185  -0.00344  -0.00039   0.00000
  30        2PZ         0.00000   0.00000   0.00000   0.00000  -0.00152
  31 7   H  1S          0.00014  -0.00957  -0.01235  -0.00328   0.00000
  32 8   H  1S         -0.00662   0.14015   0.06434   0.19326   0.00000
  33 9   H  1S          0.00014  -0.00957  -0.01108  -0.00456   0.00000
  34 10  H  1S          0.00000   0.00042   0.00007   0.00084   0.00000
  35 11  H  1S          0.00000   0.00001   0.00000   0.00001   0.00000
  36 12  H  1S          0.00000   0.00042   0.00090   0.00001   0.00000
                          11        12        13        14        15
  11 3   C  1S          2.07001
  12        2S         -0.05239   0.80035
  13        2PX         0.00000   0.00000   0.61705
  14        2PY         0.00000   0.00000   0.00000   0.60341
  15        2PZ         0.00000   0.00000   0.00000   0.00000   0.78890
  16 4   C  1S          0.00000  -0.00239  -0.00176  -0.00522   0.00000
  17        2S         -0.00239   0.03476   0.02965   0.08399   0.00000
  18        2PX        -0.00173   0.02716  -0.00915   0.04932   0.00000
  19        2PY        -0.00525   0.08649   0.04673   0.06766   0.00000
  20        2PZ         0.00000   0.00000   0.00000   0.00000   0.10861
  21 5   C  1S          0.00000   0.00003   0.00007   0.00003   0.00000
  22        2S          0.00003  -0.00232  -0.00583  -0.00185   0.00000
  23        2PX         0.00008  -0.00569  -0.00640  -0.00344   0.00000
  24        2PY         0.00002  -0.00199  -0.00101  -0.00039   0.00000
  25        2PZ         0.00000   0.00000   0.00000   0.00000  -0.00152
  26 6   C  1S          0.00000   0.00001   0.00001   0.00000   0.00000
  27        2S          0.00001  -0.00137  -0.00182   0.00000   0.00000
  28        2PX         0.00001  -0.00182  -0.00232   0.00000   0.00000
  29        2PY         0.00000   0.00000   0.00000  -0.00054   0.00000
  30        2PZ         0.00000   0.00000   0.00000   0.00000  -0.00348
  31 7   H  1S          0.00000   0.00042   0.00040   0.00051   0.00000
  32 8   H  1S          0.00014  -0.00957  -0.00003  -0.01561   0.00000
  33 9   H  1S         -0.00662   0.14017   0.25757   0.00000   0.00000
  34 10  H  1S          0.00014  -0.00957  -0.00003  -0.01560   0.00000
  35 11  H  1S          0.00000   0.00042   0.00040   0.00051   0.00000
  36 12  H  1S          0.00000   0.00001   0.00001   0.00000   0.00000
                          16        17        18        19        20
  16 4   C  1S          2.07001
  17        2S         -0.05239   0.80039
  18        2PX         0.00000   0.00000   0.60679
  19        2PY         0.00000   0.00000   0.00000   0.61364
  20        2PZ         0.00000   0.00000   0.00000   0.00000   0.78892
  21 5   C  1S          0.00000  -0.00240  -0.00699   0.00000   0.00000
  22        2S         -0.00240   0.03481   0.11370   0.00000   0.00000
  23        2PX        -0.00699   0.11371   0.15404   0.00000   0.00000
  24        2PY         0.00000   0.00000   0.00000   0.00051   0.00000
  25        2PZ         0.00000   0.00000   0.00000   0.00000   0.10897
  26 6   C  1S          0.00000   0.00003   0.00008   0.00002   0.00000
  27        2S          0.00003  -0.00232  -0.00569  -0.00199   0.00000
  28        2PX         0.00007  -0.00583  -0.00641  -0.00101   0.00000
  29        2PY         0.00003  -0.00185  -0.00344  -0.00039   0.00000
  30        2PZ         0.00000   0.00000   0.00000   0.00000  -0.00152
  31 7   H  1S          0.00000   0.00001   0.00000   0.00001   0.00000
  32 8   H  1S          0.00000   0.00042   0.00007   0.00084   0.00000
  33 9   H  1S          0.00014  -0.00957  -0.01106  -0.00456   0.00000
  34 10  H  1S         -0.00662   0.14017   0.06445   0.19312   0.00000
  35 11  H  1S          0.00014  -0.00957  -0.01235  -0.00328   0.00000
  36 12  H  1S          0.00000   0.00042   0.00090   0.00001   0.00000
                          21        22        23        24        25
  21 5   C  1S          2.07001
  22        2S         -0.05239   0.80030
  23        2PX         0.00000   0.00000   0.60681
  24        2PY         0.00000   0.00000   0.00000   0.61366
  25        2PZ         0.00000   0.00000   0.00000   0.00000   0.78889
  26 6   C  1S          0.00000  -0.00240  -0.00173  -0.00525   0.00000
  27        2S         -0.00240   0.03478   0.02717   0.08650   0.00000
  28        2PX        -0.00176   0.02967  -0.00916   0.04675   0.00000
  29        2PY        -0.00522   0.08400   0.04933   0.06763   0.00000
  30        2PZ         0.00000   0.00000   0.00000   0.00000   0.10867
  31 7   H  1S          0.00000   0.00042   0.00007   0.00084   0.00000
  32 8   H  1S          0.00000   0.00001   0.00000   0.00001   0.00000
  33 9   H  1S          0.00000   0.00042   0.00090   0.00001   0.00000
  34 10  H  1S          0.00014  -0.00957  -0.01234  -0.00328   0.00000
  35 11  H  1S         -0.00662   0.14015   0.06444   0.19314   0.00000
  36 12  H  1S          0.00014  -0.00958  -0.01107  -0.00456   0.00000
                          26        27        28        29        30
  26 6   C  1S          2.07001
  27        2S         -0.05239   0.80027
  28        2PX         0.00000   0.00000   0.61708
  29        2PY         0.00000   0.00000   0.00000   0.60343
  30        2PZ         0.00000   0.00000   0.00000   0.00000   0.78889
  31 7   H  1S          0.00014  -0.00957  -0.00003  -0.01561   0.00000
  32 8   H  1S          0.00000   0.00042   0.00040   0.00051   0.00000
  33 9   H  1S          0.00000   0.00001   0.00001   0.00000   0.00000
  34 10  H  1S          0.00000   0.00042   0.00040   0.00051   0.00000
  35 11  H  1S          0.00014  -0.00957  -0.00003  -0.01561   0.00000
  36 12  H  1S         -0.00662   0.14017   0.25759   0.00000   0.00000
                          31        32        33        34        35
  31 7   H  1S          0.60298
  32 8   H  1S         -0.00353   0.60302
  33 9   H  1S         -0.00003  -0.00353   0.60299
  34 10  H  1S          0.00000  -0.00003  -0.00352   0.60299
  35 11  H  1S         -0.00003   0.00000  -0.00003  -0.00352   0.60304
  36 12  H  1S         -0.00353  -0.00003   0.00000  -0.00003  -0.00353
                          36
  36 12  H  1S          0.60298
     Gross orbital populations:
                           1
   1 1   C  1S          1.99279
   2        2S          1.13879
   3        2PX         0.95864
   4        2PY         0.97019
   5        2PZ         1.00000
   6 2   C  1S          1.99279
   7        2S          1.13876
   8        2PX         0.95864
   9        2PY         0.97021
  10        2PZ         1.00002
  11 3   C  1S          1.99279
  12        2S          1.13884
  13        2PX         0.97589
  14        2PY         0.95287
  15        2PZ         0.99999
  16 4   C  1S          1.99279
  17        2S          1.13887
  18        2PX         0.95865
  19        2PY         0.97008
  20        2PZ         0.99998
  21 5   C  1S          1.99279
  22        2S          1.13880
  23        2PX         0.95866
  24        2PY         0.97013
  25        2PZ         1.00001
  26 6   C  1S          1.99279
  27        2S          1.13878
  28        2PX         0.97593
  29        2PY         0.95291
  30        2PZ         1.00000
  31 7   H  1S          0.93960
  32 8   H  1S          0.93961
  33 9   H  1S          0.93960
  34 10  H  1S          0.93961
  35 11  H  1S          0.93962
  36 12  H  1S          0.93960
          Condensed to atoms (all electrons):
               1          2          3          4          5          6
     1  C    4.774907   0.506575  -0.030211  -0.011302  -0.030216   0.506927
     2  C    0.506575   4.774880   0.506979  -0.030213  -0.011301  -0.030217
     3  C   -0.030211   0.506979   4.774933   0.506480  -0.030205  -0.011300
     4  C   -0.011302  -0.030213   0.506480   4.774951   0.506946  -0.030211
     5  C   -0.030216  -0.011301  -0.030205   0.506946   4.774886   0.506582
     6  C    0.506927  -0.030217  -0.011300  -0.030211   0.506582   4.774908
     7  H    0.391148  -0.025058   0.001335   0.000028   0.001336  -0.025064
     8  H   -0.025069   0.391134  -0.025062   0.001336   0.000028   0.001336
     9  H    0.001336  -0.025061   0.391129  -0.025049   0.001334   0.000028
    10  H    0.000028   0.001335  -0.025060   0.391124  -0.025048   0.001335
    11  H    0.001336   0.000028   0.001335  -0.025054   0.391110  -0.025065
    12  H   -0.025061   0.001336   0.000028   0.001336  -0.025063   0.391148
               7          8          9         10         11         12
     1  C    0.391148  -0.025069   0.001336   0.000028   0.001336  -0.025061
     2  C   -0.025058   0.391134  -0.025061   0.001335   0.000028   0.001336
     3  C    0.001335  -0.025062   0.391129  -0.025060   0.001335   0.000028
     4  C    0.000028   0.001336  -0.025049   0.391124  -0.025054   0.001336
     5  C    0.001336   0.000028   0.001334  -0.025048   0.391110  -0.025063
     6  C   -0.025064   0.001336   0.000028   0.001335  -0.025065   0.391148
     7  H    0.602983  -0.003526  -0.000030   0.000002  -0.000030  -0.003526
     8  H   -0.003526   0.603021  -0.003526  -0.000030   0.000002  -0.000030
     9  H   -0.000030  -0.003526   0.602992  -0.003521  -0.000030   0.000002
    10  H    0.000002  -0.000030  -0.003521   0.602993  -0.003522  -0.000030
    11  H   -0.000030   0.000002  -0.000030  -0.003522   0.603039  -0.003526
    12  H   -0.003526  -0.000030   0.000002  -0.000030  -0.003526   0.602985
 Mulliken charges:
               1
     1  C   -0.060397
     2  C   -0.060416
     3  C   -0.060381
     4  C   -0.060370
     5  C   -0.060389
     6  C   -0.060408
     7  H    0.060403
     8  H    0.060388
     9  H    0.060396
    10  H    0.060394
    11  H    0.060378
    12  H    0.060403
 Sum of Mulliken charges =   0.00000
 Mulliken charges with hydrogens summed into heavy atoms:
               1
     1  C    0.000006
     2  C   -0.000029
     3  C    0.000015
     4  C    0.000024
     5  C   -0.000011
     6  C   -0.000006
 Electronic spatial extent (au):  <R**2>=            771.3903
 Charge=              0.0000 electrons
 Dipole moment (field-independent basis, Debye):
    X=              0.0001    Y=              0.0001    Z=              0.0004  Tot=              0.0004
 Quadrupole moment (field-independent basis, Debye-Ang):
   XX=            -31.1575   YY=            -31.1583   ZZ=            -35.1303
   XY=              0.0005   XZ=              0.0020   YZ=             -0.0023
 Traceless Quadrupole moment (field-independent basis, Debye-Ang):
   XX=              1.3246   YY=              1.3237   ZZ=             -2.6483
   XY=              0.0005   XZ=              0.0020   YZ=             -0.0023
 Octapole moment (field-independent basis, Debye-Ang**2):
  XXX=             -4.5777  YYY=           -135.4801  ZZZ=              0.1070  XYY=             -1.5253
  XXY=            -45.1536  XXZ=              0.0340  XZZ=             -1.7210  YZZ=            -50.9157
  YYZ=              0.0256  XYZ=              0.0029
 Hexadecapole moment (field-independent basis, Debye-Ang**3):
 XXXX=           -261.0216 YYYY=           -653.2938 ZZZZ=            -28.5486 XXXY=             -6.6312
 XXXZ=             -0.0178 YYYX=             -6.6308 YYYZ=              0.1854 ZZZX=             -0.0298
 ZZZY=              0.2371 XXYY=           -152.3678 XXZZ=            -54.0772 YYZZ=           -127.7855
 XXYZ=              0.0686 YYXZ=              0.0014 ZZXY=             -2.4933
 N-N= 2.030307491037D+02 E-N=-9.368915576423D+02  KE= 2.259062405880D+02
 Orbital energies and kinetic energies (alpha):
                                 1                 2
   1         O               -11.029298         15.650503
   2         O               -11.029296         15.650382
   3         O               -11.029269         15.667077
   4         O               -11.028941         15.626251
   5         O               -11.028940         15.626265
   6         O               -11.028796         15.613282
   7         O                -1.089116          1.375591
   8         O                -0.952621          1.509319
   9         O                -0.952575          1.509185
  10         O                -0.763175          1.345447
  11         O                -0.763124          1.345329
  12         O                -0.657243          0.850974
  13         O                -0.587597          1.237324
  14         O                -0.552426          1.308240
  15         O                -0.530407          1.133837
  16         O                -0.530387          1.133858
  17         O                -0.455723          1.083872
  18         O                -0.429957          1.320184
  19         O                -0.429865          1.320210
  20         O                -0.279407          1.322971
  21         O                -0.279336          1.323020
  22         V                 0.269248          1.823374
  23         V                 0.269338          1.823497
  24         V                 0.504282          2.165230
  25         V                 0.564732          1.981704
  26         V                 0.636472          2.106788
  27         V                 0.636596          2.106908
  28         V                 0.706743          3.060359
  29         V                 0.726004          3.168769
  30         V                 0.726069          3.168594
  31         V                 0.874951          2.776684
  32         V                 0.875041          2.777278
  33         V                 0.893999          3.170698
  34         V                 0.894173          3.171129
  35         V                 1.087776          3.362574
  36         V                 1.144369          3.595733
 Total kinetic energy from orbitals= 2.259062405880D+02
 Unable to Open any file for archive entry.
 1\1\GINC-MEDUSA\SP\RHF\STO-3G\C6H6\DBWY\22-Sep-2015\0\\# hf/sto-3G gfi
 nput pop=full nosymm\\Benzene STO-3G\\0,1\C,0,-0.64863549,0.24130784,-
 0.00045\C,0,0.74652451,0.24130784,-0.00045\C,0,1.44406251,1.44905884,-
 0.00045\C,0,0.74640851,2.65756784,-0.001649\C,0,-0.64841649,2.65748984
 ,-0.002128\C,0,-1.34601749,1.44928384,-0.001132\H,0,-1.19839449,-0.711
 00916,0.\H,0,1.29603251,-0.71120516,0.000865\H,0,2.54374251,1.44913884
 ,0.000184\H,0,1.29660851,3.60971084,-0.001708\H,0,-1.19853849,3.609770
 84,-0.003081\H,0,-2.44562149,1.44946684,-0.001312\\Version=ES64L-GDVRe
 vI.01+\HF=-227.8894099\RMSD=2.526e-09\Dipole=0.0000363,0.0000442,0.000
 1411\Quadrupole=0.9847741,0.9841573,-1.9689313,0.000402,0.0014712,-0.0
 017402\PG=C01 [X(C6H6)]\\@
 The archive entry for this job was punched.


 JUST WHEN YOU THINK YOU'VE GOT THE WORLD ON A STRING,
 YOU FIND OUT IT'S YOUR LEASH.
 Job cpu time:       0 days  0 hours  0 minutes  0.9 seconds.
 Elapsed time:       0 days  0 hours  0 minutes  0.7 seconds.
 File lengths (MBytes):  RWF=      5 Int=      0 D2E=      0 Chk=      1 Scr=      1
 Normal termination of Gaussian DV at Tue Sep 22 13:39:17 2015.
