 Entering Gaussian System, Link 0=gdv
 Input=benzene_cc-pVDZ_TD.com
 Output=benzene_cc-pVDZ_TD.log
 Initial command:
 /home/gauss/gdvi03p/gdv/l1.exe "/home/GauScr/Gau-4622.inp" -scrdir="/home/GauScr/"
 Entering Link 1 = /home/gauss/gdvi03p/gdv/l1.exe PID=      4623.
  
 Copyright (c) 1988,1990,1992,1993,1995,1998,2003,2009,2015,
            Gaussian, Inc.  All Rights Reserved.
  
 This is the private, development version of
 the Gaussian(R) DV system of programs. It is based on
 the Gaussian(R) 09 system (copyright 2009, Gaussian, Inc.),
 the Gaussian(R) 03 system (copyright 2003, Gaussian, Inc.),
 the Gaussian(R) 98 system (copyright 1998, Gaussian, Inc.),
 the Gaussian(R) 94 system (copyright 1995, Gaussian, Inc.),
 the Gaussian 92(TM) system (copyright 1992, Gaussian, Inc.),
 the Gaussian 90(TM) system (copyright 1990, Gaussian, Inc.),
 the Gaussian 88(TM) system (copyright 1988, Gaussian, Inc.),
 the Gaussian 86(TM) system (copyright 1986, Carnegie Mellon
 University), and the Gaussian 82(TM) system (copyright 1983,
 Carnegie Mellon University). Gaussian is a federally registered
 trademark of Gaussian, Inc.
  
 This software contains proprietary and confidential information,
 including trade secrets, belonging to Gaussian, Inc.
  
 This software is provided under written license and may be
 used, copied, transmitted, or stored only in accord with that
 written license.
  
 The following legend is applicable only to US Government
 contracts under FAR:
  
                    RESTRICTED RIGHTS LEGEND
  
 Use, reproduction and disclosure by the US Government is
 subject to restrictions as set forth in subparagraphs (a)
 and (c) of the Commercial Computer Software - Restricted
 Rights clause in FAR 52.227-19.
  
 Gaussian, Inc.
 340 Quinnipiac St., Bldg. 40, Wallingford CT 06492
  
  
 ---------------------------------------------------------------
 Warning -- This program may not be used in any manner that
 competes with the business of Gaussian, Inc. or will provide
 assistance to any competitor of Gaussian, Inc.  The licensee
 of this program is prohibited from giving any competitor of
 Gaussian, Inc. access to this program.  By using this program,
 the user acknowledges that Gaussian, Inc. is engaged in the
 business of creating and licensing software in the field of
 computational chemistry and represents and warrants to the
 licensee that it is not a competitor of Gaussian, Inc. and that
 it will not use this program in any manner prohibited above.
 ---------------------------------------------------------------
  

 Cite this work as:
 Gaussian Development Version, Revision I.03+,
 M. J. Frisch, G. W. Trucks, H. B. Schlegel, G. E. Scuseria, 
 M. A. Robb, J. R. Cheeseman, G. Scalmani, V. Barone, B. Mennucci, 
 G. A. Petersson, H. Nakatsuji, M. Caricato, X. Li, H. P. Hratchian, 
 J. Bloino, B. G. Janesko, A. F. Izmaylov, A. Marenich, F. Lipparini, 
 G. Zheng, J. L. Sonnenberg, W. Liang, M. Hada, M. Ehara, K. Toyota, 
 R. Fukuda, J. Hasegawa, M. Ishida, T. Nakajima, Y. Honda, O. Kitao, 
 H. Nakai, T. Vreven, K. Throssell, J. A. Montgomery, Jr., 
 J. E. Peralta, F. Ogliaro, M. Bearpark, J. J. Heyd, E. Brothers, 
 K. N. Kudin, V. N. Staroverov, T. Keith, R. Kobayashi, J. Normand, 
 K. Raghavachari, A. Rendell, J. C. Burant, S. S. Iyengar, J. Tomasi, 
 M. Cossi, N. Rega, J. M. Millam, M. Klene, J. E. Knox, J. B. Cross, 
 V. Bakken, C. Adamo, J. Jaramillo, R. Gomperts, R. E. Stratmann, 
 O. Yazyev, A. J. Austin, R. Cammi, C. Pomelli, J. W. Ochterski, 
 R. L. Martin, K. Morokuma, V. G. Zakrzewski, G. A. Voth, 
 P. Salvador, J. J. Dannenberg, S. Dapprich, P. V. Parandekar, 
 N. J. Mayhall, A. D. Daniels, O. Farkas, J. B. Foresman, 
 J. V. Ortiz, J. Cioslowski, and D. J. Fox, 
 Gaussian, Inc., Wallingford CT, 2014.
 
 *******************************************
 Gaussian DV:  ES64L-GDVRevI.03+  2-May-2015
                 28-Oct-2015 
 *******************************************
 %chk=benz
 %nproc=2
 Will use up to    2 processors via shared memory.
 -------------------------------------------
 # hf/cc-pvdz gfinput td(full,nstates=12) 6D
 -------------------------------------------
 1/38=1,172=1/1;
 2/12=2,17=6,18=5,40=1/2;
 3/5=16,8=2,11=9,24=10,25=1,30=1/1,2,3,8;
 4//1;
 5/5=2,38=5/2;
 8/6=1,10=90,108=12/1,4;
 9/41=12,42=3,70=2/14;
 6/7=2,8=2,9=2,10=2/1;
 99/5=1,9=1/99;
 ---------------
 Benzene singlet
 ---------------
 Symbolic Z-matrix:
 Charge =  0 Multiplicity = 1
 C                    -0.20699  -0.18218   0.00007 
 C                     1.19167  -0.18235   0.0005 
 C                     1.89106   1.02887  -0.00007 
 C                     1.19173   2.24013  -0.00106 
 C                    -0.20692   2.24031  -0.00148 
 C                    -0.90631   1.02909  -0.00092 
 H                    -0.75075  -1.1239    0.00051 
 H                     1.73529  -1.12415   0.00127 
 H                     2.97848   1.02893   0.00027 
 H                     1.7355    3.18185  -0.0015 
 H                    -0.75054   3.1821   -0.00226 
 H                    -1.99373   1.02902  -0.00125 
 
                          Input orientation:                          
 ---------------------------------------------------------------------
 Center     Atomic      Atomic             Coordinates (Angstroms)
 Number     Number       Type             X           Y           Z
 ---------------------------------------------------------------------
      1          6           0       -0.206985   -0.182180    0.000071
      2          6           0        1.191674   -0.182353    0.000499
      3          6           0        1.891055    1.028868   -0.000066
      4          6           0        1.191735    2.240134   -0.001056
      5          6           0       -0.206924    2.240307   -0.001484
      6          6           0       -0.906306    1.029086   -0.000919
      7          1           0       -0.750746   -1.123896    0.000510
      8          1           0        1.735285   -1.124149    0.001271
      9          1           0        2.978478    1.028934    0.000267
     10          1           0        1.735496    3.181849   -0.001495
     11          1           0       -0.750536    3.182103   -0.002255
     12          1           0       -1.993729    1.029020   -0.001252
 ---------------------------------------------------------------------
                    Distance matrix (angstroms):
                    1          2          3          4          5
     1  C    0.000000
     2  C    1.398659   0.000000
     3  C    2.422480   1.398639   0.000000
     4  C    2.797145   2.422487   1.398648   0.000000
     5  C    2.422487   2.797385   2.422623   1.398659   0.000000
     6  C    1.398648   2.422623   2.797361   2.422480   1.398639
     7  H    1.087430   2.158587   3.407859   3.884576   3.407874
     8  H    2.158639   1.087425   2.158645   3.407910   3.884810
     9  H    3.407928   2.158677   1.087423   2.158578   3.407964
    10  H    3.884576   3.407874   2.158595   1.087430   2.158587
    11  H    3.407910   3.884810   3.407995   2.158639   1.087425
    12  H    2.158578   3.407964   3.884784   3.407928   2.158677
                    6          7          8          9         10
     6  C    0.000000
     7  H    2.158595   0.000000
     8  H    3.407995   2.486032   0.000000
     9  H    3.884784   4.306018   2.486221   0.000000
    10  H    3.407859   4.972006   4.306000   2.485971   0.000000
    11  H    2.158645   4.306000   4.972236   4.306006   2.486032
    12  H    1.087423   2.485971   4.306006   4.972207   4.306018
                   11         12
    11  H    0.000000
    12  H    2.486221   0.000000
 Stoichiometry    C6H6
 Framework group  CI[X(C6H6)]
 Deg. of freedom    15
 Full point group                 CI      NOp   2
 Largest Abelian subgroup         CI      NOp   2
 Largest concise Abelian subgroup CI      NOp   2
                         Standard orientation:                         
 ---------------------------------------------------------------------
 Center     Atomic      Atomic             Coordinates (Angstroms)
 Number     Number       Type             X           Y           Z
 ---------------------------------------------------------------------
      1          6           0       -0.699360   -1.211157    0.000564
      2          6           0        0.699299   -1.211330    0.000991
      3          6           0        1.398680   -0.000109    0.000427
      4          6           0        0.699360    1.211157   -0.000564
      5          6           0       -0.699299    1.211330   -0.000991
      6          6           0       -1.398680    0.000109   -0.000427
      7          1           0       -1.243121   -2.152873    0.001002
      8          1           0        1.242911   -2.153126    0.001763
      9          1           0        2.486104   -0.000043    0.000760
     10          1           0        1.243121    2.152873   -0.001002
     11          1           0       -1.242911    2.153126   -0.001763
     12          1           0       -2.486104    0.000043   -0.000760
 ---------------------------------------------------------------------
 Rotational constants (GHZ):      5.6717105      5.6710222      2.8356832
 Standard basis: CC-pVDZ (6D, 7F)
 AO basis set in the form of general basis input (Overlap normalization):
      1 0
 S   7 1.00       0.000000000000
      0.6665000000D+04  0.6935163173D-03
      0.1000000000D+04  0.5341502433D-02
      0.2280000000D+03  0.2713667141D-01
      0.6471000000D+02  0.1019923853D+00
      0.2106000000D+02  0.2755086365D+00
      0.7495000000D+01  0.4510864331D+00
      0.2797000000D+01  0.2875657448D+00
 S   7 1.00       0.000000000000
      0.6665000000D+04  0.7733547404D-05
      0.2280000000D+03  0.2780721367D-03
      0.6471000000D+02 -0.2578756542D-02
      0.2106000000D+02 -0.8950876838D-02
      0.7495000000D+01 -0.1060588547D+00
      0.2797000000D+01 -0.1315176856D+00
      0.5215000000D+00  0.1099486598D+01
 S   1 1.00       0.000000000000
      0.1596000000D+00  0.1000000000D+01
 P   3 1.00       0.000000000000
      0.9439000000D+01  0.5697925159D-01
      0.2002000000D+01  0.3132072115D+00
      0.5456000000D+00  0.7603767417D+00
 P   1 1.00       0.000000000000
      0.1517000000D+00  0.1000000000D+01
 D   1 1.00       0.000000000000
      0.5500000000D+00  0.1000000000D+01
 ****
      2 0
 S   7 1.00       0.000000000000
      0.6665000000D+04  0.6935163173D-03
      0.1000000000D+04  0.5341502433D-02
      0.2280000000D+03  0.2713667141D-01
      0.6471000000D+02  0.1019923853D+00
      0.2106000000D+02  0.2755086365D+00
      0.7495000000D+01  0.4510864331D+00
      0.2797000000D+01  0.2875657448D+00
 S   7 1.00       0.000000000000
      0.6665000000D+04  0.7733547404D-05
      0.2280000000D+03  0.2780721367D-03
      0.6471000000D+02 -0.2578756542D-02
      0.2106000000D+02 -0.8950876838D-02
      0.7495000000D+01 -0.1060588547D+00
      0.2797000000D+01 -0.1315176856D+00
      0.5215000000D+00  0.1099486598D+01
 S   1 1.00       0.000000000000
      0.1596000000D+00  0.1000000000D+01
 P   3 1.00       0.000000000000
      0.9439000000D+01  0.5697925159D-01
      0.2002000000D+01  0.3132072115D+00
      0.5456000000D+00  0.7603767417D+00
 P   1 1.00       0.000000000000
      0.1517000000D+00  0.1000000000D+01
 D   1 1.00       0.000000000000
      0.5500000000D+00  0.1000000000D+01
 ****
      3 0
 S   7 1.00       0.000000000000
      0.6665000000D+04  0.6935163173D-03
      0.1000000000D+04  0.5341502433D-02
      0.2280000000D+03  0.2713667141D-01
      0.6471000000D+02  0.1019923853D+00
      0.2106000000D+02  0.2755086365D+00
      0.7495000000D+01  0.4510864331D+00
      0.2797000000D+01  0.2875657448D+00
 S   7 1.00       0.000000000000
      0.6665000000D+04  0.7733547404D-05
      0.2280000000D+03  0.2780721367D-03
      0.6471000000D+02 -0.2578756542D-02
      0.2106000000D+02 -0.8950876838D-02
      0.7495000000D+01 -0.1060588547D+00
      0.2797000000D+01 -0.1315176856D+00
      0.5215000000D+00  0.1099486598D+01
 S   1 1.00       0.000000000000
      0.1596000000D+00  0.1000000000D+01
 P   3 1.00       0.000000000000
      0.9439000000D+01  0.5697925159D-01
      0.2002000000D+01  0.3132072115D+00
      0.5456000000D+00  0.7603767417D+00
 P   1 1.00       0.000000000000
      0.1517000000D+00  0.1000000000D+01
 D   1 1.00       0.000000000000
      0.5500000000D+00  0.1000000000D+01
 ****
      4 0
 S   7 1.00       0.000000000000
      0.6665000000D+04  0.6935163173D-03
      0.1000000000D+04  0.5341502433D-02
      0.2280000000D+03  0.2713667141D-01
      0.6471000000D+02  0.1019923853D+00
      0.2106000000D+02  0.2755086365D+00
      0.7495000000D+01  0.4510864331D+00
      0.2797000000D+01  0.2875657448D+00
 S   7 1.00       0.000000000000
      0.6665000000D+04  0.7733547404D-05
      0.2280000000D+03  0.2780721367D-03
      0.6471000000D+02 -0.2578756542D-02
      0.2106000000D+02 -0.8950876838D-02
      0.7495000000D+01 -0.1060588547D+00
      0.2797000000D+01 -0.1315176856D+00
      0.5215000000D+00  0.1099486598D+01
 S   1 1.00       0.000000000000
      0.1596000000D+00  0.1000000000D+01
 P   3 1.00       0.000000000000
      0.9439000000D+01  0.5697925159D-01
      0.2002000000D+01  0.3132072115D+00
      0.5456000000D+00  0.7603767417D+00
 P   1 1.00       0.000000000000
      0.1517000000D+00  0.1000000000D+01
 D   1 1.00       0.000000000000
      0.5500000000D+00  0.1000000000D+01
 ****
      5 0
 S   7 1.00       0.000000000000
      0.6665000000D+04  0.6935163173D-03
      0.1000000000D+04  0.5341502433D-02
      0.2280000000D+03  0.2713667141D-01
      0.6471000000D+02  0.1019923853D+00
      0.2106000000D+02  0.2755086365D+00
      0.7495000000D+01  0.4510864331D+00
      0.2797000000D+01  0.2875657448D+00
 S   7 1.00       0.000000000000
      0.6665000000D+04  0.7733547404D-05
      0.2280000000D+03  0.2780721367D-03
      0.6471000000D+02 -0.2578756542D-02
      0.2106000000D+02 -0.8950876838D-02
      0.7495000000D+01 -0.1060588547D+00
      0.2797000000D+01 -0.1315176856D+00
      0.5215000000D+00  0.1099486598D+01
 S   1 1.00       0.000000000000
      0.1596000000D+00  0.1000000000D+01
 P   3 1.00       0.000000000000
      0.9439000000D+01  0.5697925159D-01
      0.2002000000D+01  0.3132072115D+00
      0.5456000000D+00  0.7603767417D+00
 P   1 1.00       0.000000000000
      0.1517000000D+00  0.1000000000D+01
 D   1 1.00       0.000000000000
      0.5500000000D+00  0.1000000000D+01
 ****
      6 0
 S   7 1.00       0.000000000000
      0.6665000000D+04  0.6935163173D-03
      0.1000000000D+04  0.5341502433D-02
      0.2280000000D+03  0.2713667141D-01
      0.6471000000D+02  0.1019923853D+00
      0.2106000000D+02  0.2755086365D+00
      0.7495000000D+01  0.4510864331D+00
      0.2797000000D+01  0.2875657448D+00
 S   7 1.00       0.000000000000
      0.6665000000D+04  0.7733547404D-05
      0.2280000000D+03  0.2780721367D-03
      0.6471000000D+02 -0.2578756542D-02
      0.2106000000D+02 -0.8950876838D-02
      0.7495000000D+01 -0.1060588547D+00
      0.2797000000D+01 -0.1315176856D+00
      0.5215000000D+00  0.1099486598D+01
 S   1 1.00       0.000000000000
      0.1596000000D+00  0.1000000000D+01
 P   3 1.00       0.000000000000
      0.9439000000D+01  0.5697925159D-01
      0.2002000000D+01  0.3132072115D+00
      0.5456000000D+00  0.7603767417D+00
 P   1 1.00       0.000000000000
      0.1517000000D+00  0.1000000000D+01
 D   1 1.00       0.000000000000
      0.5500000000D+00  0.1000000000D+01
 ****
      7 0
 S   3 1.00       0.000000000000
      0.1301000000D+02  0.3349872639D-01
      0.1962000000D+01  0.2348008012D+00
      0.4446000000D+00  0.8136829579D+00
 S   1 1.00       0.000000000000
      0.1220000000D+00  0.1000000000D+01
 P   1 1.00       0.000000000000
      0.7270000000D+00  0.1000000000D+01
 ****
      8 0
 S   3 1.00       0.000000000000
      0.1301000000D+02  0.3349872639D-01
      0.1962000000D+01  0.2348008012D+00
      0.4446000000D+00  0.8136829579D+00
 S   1 1.00       0.000000000000
      0.1220000000D+00  0.1000000000D+01
 P   1 1.00       0.000000000000
      0.7270000000D+00  0.1000000000D+01
 ****
      9 0
 S   3 1.00       0.000000000000
      0.1301000000D+02  0.3349872639D-01
      0.1962000000D+01  0.2348008012D+00
      0.4446000000D+00  0.8136829579D+00
 S   1 1.00       0.000000000000
      0.1220000000D+00  0.1000000000D+01
 P   1 1.00       0.000000000000
      0.7270000000D+00  0.1000000000D+01
 ****
     10 0
 S   3 1.00       0.000000000000
      0.1301000000D+02  0.3349872639D-01
      0.1962000000D+01  0.2348008012D+00
      0.4446000000D+00  0.8136829579D+00
 S   1 1.00       0.000000000000
      0.1220000000D+00  0.1000000000D+01
 P   1 1.00       0.000000000000
      0.7270000000D+00  0.1000000000D+01
 ****
     11 0
 S   3 1.00       0.000000000000
      0.1301000000D+02  0.3349872639D-01
      0.1962000000D+01  0.2348008012D+00
      0.4446000000D+00  0.8136829579D+00
 S   1 1.00       0.000000000000
      0.1220000000D+00  0.1000000000D+01
 P   1 1.00       0.000000000000
      0.7270000000D+00  0.1000000000D+01
 ****
     12 0
 S   3 1.00       0.000000000000
      0.1301000000D+02  0.3349872639D-01
      0.1962000000D+01  0.2348008012D+00
      0.4446000000D+00  0.8136829579D+00
 S   1 1.00       0.000000000000
      0.1220000000D+00  0.1000000000D+01
 P   1 1.00       0.000000000000
      0.7270000000D+00  0.1000000000D+01
 ****

 There are    60 symmetry adapted cartesian basis functions of AG  symmetry.
 There are    60 symmetry adapted cartesian basis functions of AU  symmetry.
 There are    60 symmetry adapted basis functions of AG  symmetry.
 There are    60 symmetry adapted basis functions of AU  symmetry.
   120 basis functions,   240 primitive gaussians,   120 cartesian basis functions
    21 alpha electrons       21 beta electrons
       nuclear repulsion energy       202.9242874114 Hartrees.
 NAtoms=   12 NActive=   12 NUniq=    6 SFac= 4.00D+00 NAtFMM=   60 NAOKFM=F Big=F
 Integral buffers will be    131072 words long.
 Raffenetti 1 integral format.
 Two-electron integral symmetry is turned on.
 One-electron integrals computed using PRISM.
 NBasis=   120 RedAO= T EigKep=  3.42D-04  NBF=    60    60
 NBsUse=   120 1.00D-06 EigRej= -1.00D+00 NBFU=    60    60
 ExpMin= 1.22D-01 ExpMax= 6.67D+03 ExpMxC= 2.28D+02 IAcc=1 IRadAn=         1 AccDes= 0.00D+00
 Harris functional with IExCor=  205 and IRadAn=       1 diagonalized for initial guess.
 HarFok:  IExCor=  205 AccDes= 0.00D+00 IRadAn=         1 IDoV= 1 UseB2=F ITyADJ=14
 ICtDFT=  3500011 ScaDFX=  1.000000  1.000000  1.000000  1.000000
 FoFCou: FMM=F IPFlag=           0 FMFlag=      100000 FMFlg1=           0
         NFxFlg=           0 DoJE=T BraDBF=F KetDBF=T FulRan=T
         wScrn=  0.000000 ICntrl=       500 IOpCl=  0 I1Cent=   200000004 NGrid=           0
         NMat0=    1 NMatS0=      1 NMatT0=    0 NMatD0=    1 NMtDS0=    0 NMtDT0=    0
 Petite list used in FoFCou.
 Initial guess orbital symmetries:
       Occupied  (AG) (AU) (AU) (AG) (AG) (AU) (AG) (AU) (AU) (AG)
                 (AG) (AG) (AU) (AU) (AU) (AU) (AU) (AG) (AG) (AG)
                 (AG)
       Virtual   (AU) (AU) (AG) (AG) (AU) (AU) (AG) (AG) (AU) (AG)
                 (AG) (AU) (AU) (AU) (AG) (AU) (AU) (AG) (AU) (AU)
                 (AG) (AG) (AG) (AG) (AG) (AU) (AU) (AG) (AG) (AU)
                 (AU) (AG) (AU) (AG) (AU) (AG) (AU) (AU) (AG) (AG)
                 (AG) (AG) (AG) (AU) (AU) (AU) (AU) (AU) (AG) (AG)
                 (AG) (AU) (AU) (AU) (AG) (AG) (AU) (AU) (AG) (AG)
                 (AU) (AG) (AG) (AU) (AU) (AU) (AG) (AG) (AG) (AG)
                 (AU) (AU) (AU) (AG) (AU) (AU) (AG) (AG) (AU) (AU)
                 (AG) (AG) (AG) (AG) (AU) (AU) (AG) (AU) (AU) (AU)
                 (AU) (AU) (AG) (AG) (AG) (AG) (AG) (AU) (AU)
 The electronic state of the initial guess is 1-AG.
 Requested convergence on RMS density matrix=1.00D-08 within 128 cycles.
 Requested convergence on MAX density matrix=1.00D-06.
 Requested convergence on             energy=1.00D-06.
 No special actions if energy rises.
 Integral accuracy reduced to 1.0D-05 until final iterations.
 Initial convergence to 1.0D-05 achieved.  Increase integral accuracy.
 SCF Done:  E(RHF) =  -230.722342149     A.U. after   10 cycles
            NFock= 10  Conv=0.36D-08     -V/T= 2.0026
 Range of M.O.s used for correlation:     1   120
 NBasis=   120 NAE=    21 NBE=    21 NFC=     0 NFV=     0
 NROrb=    120 NOA=    21 NOB=    21 NVA=    99 NVB=    99

 **** Warning!!: The largest alpha MO coefficient is  0.11628315D+02

 Semi-Direct transformation.
 ModeAB=           4 MOrb=            21 LenV=      33017944
 LASXX=      5799696 LTotXX=     5799696 LenRXX=    11798997
 LTotAB=     5999301 MaxLAS=     9480240 LenRXY=           0
 NonZer=    17598693 LenScr=    27166720 LnRSAI=     9480240
 LnScr1=    14960640 LExtra=           0 Total=     63406597
 MaxDsk=          -1 SrtSym=           T ITran=            3
 JobTyp=0 Pass  1:  I=   1 to  21.
 (rs|ai) integrals will be sorted in core.
 Spin components of T(2) and E(2):
     alpha-alpha T2 =       0.4186316269D-01 E2=     -0.1069068922D+00
     alpha-beta  T2 =       0.2192782886D+00 E2=     -0.6045873799D+00
     beta-beta   T2 =       0.4186316269D-01 E2=     -0.1069068922D+00
 ANorm=    0.1141492275D+01
 E2 =    -0.8184011643D+00 EUMP2 =    -0.23154074331318D+03
 Orbital symmetries:
       Occupied  (AG) (AU) (AU) (AG) (AG) (AU) (AG) (AU) (AU) (AG)
                 (AG) (AG) (AU) (AU) (AU) (AU) (AU) (AG) (AG) (AG)
                 (AG)
       Virtual   (AU) (AU) (AG) (AU) (AU) (AG) (AG) (AU) (AG) (AG)
                 (AG) (AU) (AU) (AG) (AU) (AG) (AU) (AU) (AU) (AU)
                 (AG) (AG) (AG) (AG) (AG) (AU) (AU) (AU) (AU) (AG)
                 (AG) (AG) (AU) (AG) (AU) (AU) (AU) (AG) (AG) (AG)
                 (AG) (AU) (AU) (AG) (AG) (AU) (AU) (AU) (AG) (AG)
                 (AG) (AU) (AU) (AU) (AG) (AG) (AG) (AG) (AU) (AU)
                 (AU) (AU) (AG) (AG) (AU) (AU) (AG) (AG) (AU) (AU)
                 (AU) (AG) (AG) (AG) (AU) (AU) (AG) (AG) (AU) (AU)
                 (AG) (AG) (AG) (AG) (AU) (AU) (AU) (AU) (AG) (AU)
                 (AU) (AU) (AG) (AG) (AG) (AG) (AG) (AU) (AU)
    48 initial guesses have been made.
 Convergence on wavefunction:    0.001000000000000
 Iteration     1 Dimension    48 NMult     0 NNew     48
 New state      3 was old state      5
 New state      4 was old state      6
 New state      5 was old state      3
 New state      6 was old state      4
 New state      7 was old state     13
 New state      9 was old state     10
 New state     10 was old state     16
 New state     11 was old state      7
 New state     12 was old state      9
 Iteration     2 Dimension    72 NMult    48 NNew     24
 New state      3 was old state      5
 New state      4 was old state      6
 New state      5 was old state      3
 New state      6 was old state      4
 New state      8 was old state     11
 New state      9 was old state     10
 New state     10 was old state      9
 New state     11 was old state      8
 Iteration     3 Dimension    96 NMult    72 NNew     24
 Iteration     4 Dimension   120 NMult    96 NNew     24
 Iteration     5 Dimension   138 NMult   120 NNew     18
 Iteration     6 Dimension   142 NMult   138 NNew      4
 Iteration     7 Dimension   146 NMult   142 NNew      4
 ***********************************************************************
 Excited states from <AA,BB:AA,BB> singles matrix:
 ***********************************************************************
 
 Ground to excited state transition densities written to RWF  633
 Ground to excited state transition electric dipole moments (Au):
       state          X           Y           Z        Dip. S.      Osc.
         1        -0.0002      0.0001      0.0000      0.0000      0.0000
         2         0.0001      0.0000      0.0000      0.0000      0.0000
         3         1.1702      1.5290     -0.0006      3.7072      0.7000
         4         1.5291     -1.1702      0.0012      3.7077      0.7001
         5         0.0000      0.0000      0.0000      0.0000      0.0000
         6         0.0000      0.0000      0.0000      0.0000      0.0000
         7        -0.0001      0.0003      0.4227      0.1787      0.0402
         8         0.0000      0.0000     -0.0001      0.0000      0.0000
         9         0.0000      0.0000     -0.0002      0.0000      0.0000
        10         0.0000      0.0000      0.0000      0.0000      0.0000
        11         0.0000      0.0001      0.1514      0.0229      0.0054
        12         0.0000      0.0000      0.0000      0.0000      0.0000
 Ground to excited state transition velocity dipole moments (Au):
       state          X           Y           Z        Dip. S.      Osc.
         1         0.0001      0.0000      0.0000      0.0000      0.0000
         2         0.0000      0.0000      0.0000      0.0000      0.0000
         3        -0.3296     -0.4307      0.0002      0.2942      0.6924
         4        -0.4308      0.3297     -0.0003      0.2942      0.6925
         5         0.0000      0.0000      0.0000      0.0000      0.0000
         6         0.0000      0.0000      0.0000      0.0000      0.0000
         7         0.0001     -0.0001     -0.1693      0.0287      0.0566
         8         0.0000      0.0000      0.0001      0.0000      0.0000
         9         0.0000      0.0000      0.0001      0.0000      0.0000
        10         0.0000      0.0000      0.0000      0.0000      0.0000
        11         0.0000      0.0000     -0.0456      0.0021      0.0039
        12         0.0000      0.0000      0.0000      0.0000      0.0000
 Ground to excited state transition magnetic dipole moments (Au):
       state          X           Y           Z
         1         0.0000      0.0000      0.0000
         2         0.0000      0.0000      0.0000
         3         0.0000      0.0000      0.0000
         4         0.0000      0.0000      0.0000
         5        -0.4834      0.2542     -0.0003
         6        -0.2542     -0.4833      0.0002
         7         0.0000      0.0000      0.0000
         8         0.0000      0.0000      0.0000
         9         0.0000      0.0000      0.0000
        10         0.0000      0.0000      0.0000
        11         0.0000      0.0000      0.0000
        12         0.0000      0.0000      0.0000
 Ground to excited state transition velocity quadrupole moments (Au):
       state          XX          YY          ZZ          XY          XZ          YZ
         1         0.0000      0.0000      0.0000      0.0000      0.0000      0.0000
         2         0.0000      0.0000      0.0000      0.0000      0.0000      0.0000
         3         0.0000      0.0000      0.0000      0.0000      0.0000      0.0000
         4         0.0000      0.0000      0.0000      0.0000      0.0000      0.0000
         5         0.0001     -0.0005      0.0003      0.0000     -0.1865     -0.3547
         6        -0.0002     -0.0002      0.0005      0.0003      0.3547     -0.1865
         7         0.0000      0.0000      0.0000      0.0000      0.0000      0.0000
         8         0.0000      0.0000      0.0000      0.0000      0.0000      0.0000
         9         0.0000      0.0000      0.0000      0.0000      0.0000      0.0000
        10         0.0000      0.0000      0.0000      0.0000      0.0000      0.0000
        11         0.0000      0.0000      0.0000      0.0000      0.0000      0.0000
        12         0.0000      0.0000      0.0000      0.0000      0.0000      0.0000
 <0|del|b> * <b|rxdel|0> + <0|del|b> * <b|delr+rdel|0>
 Rotatory Strengths (R) in cgs (10**-40 erg-esu-cm/Gauss)
       state          XX          YY          ZZ    R(velocity)    E-M Angle
         1         0.0000      0.0000      0.0000      0.0000       90.00
         2         0.0000      0.0000      0.0000      0.0000       90.00
         3         0.0000      0.0000      0.0000      0.0000       90.00
         4         0.0000      0.0000      0.0000      0.0000       90.00
         5         0.0000      0.0000      0.0000      0.0000       90.00
         6         0.0000      0.0000      0.0000      0.0000       90.00
         7         0.0000      0.0000      0.0000      0.0000       90.00
         8         0.0000      0.0000      0.0000      0.0000       90.00
         9         0.0000      0.0000      0.0000      0.0000       90.00
        10         0.0000      0.0000      0.0000      0.0000       90.00
        11         0.0000      0.0000      0.0000      0.0000       90.00
        12         0.0000      0.0000      0.0000      0.0000       90.00
 1/2[<0|r|b>*<b|rxdel|0> + (<0|rxdel|b>*<b|r|0>)*]
 Rotatory Strengths (R) in cgs (10**-40 erg-esu-cm/Gauss)
       state          XX          YY          ZZ     R(length)
         1         0.0000      0.0000      0.0000      0.0000
         2         0.0000      0.0000      0.0000      0.0000
         3         0.0000      0.0000      0.0000      0.0000
         4         0.0000      0.0000      0.0000      0.0000
         5         0.0000      0.0000      0.0000      0.0000
         6         0.0000      0.0000      0.0000      0.0000
         7         0.0000      0.0000      0.0000      0.0000
         8         0.0000      0.0000      0.0000      0.0000
         9         0.0000      0.0000      0.0000      0.0000
        10         0.0000      0.0000      0.0000      0.0000
        11         0.0000      0.0000      0.0000      0.0000
        12         0.0000      0.0000      0.0000      0.0000
  1/2[<0|del|b>*<b|r|0> + (<0|r|b>*<b|del|0>)*] (Au)
       state          X           Y           Z        Dip. S.   Osc.(frdel)
         1         0.0000      0.0000      0.0000      0.0000      0.0000
         2         0.0000      0.0000      0.0000      0.0000      0.0000
         3        -0.3857     -0.6586      0.0000      1.0443      0.6962
         4        -0.6587     -0.3858      0.0000      1.0445      0.6963
         5         0.0000      0.0000      0.0000      0.0000      0.0000
         6         0.0000      0.0000      0.0000      0.0000      0.0000
         7         0.0000      0.0000     -0.0716      0.0716      0.0477
         8         0.0000      0.0000      0.0000      0.0000      0.0000
         9         0.0000      0.0000      0.0000      0.0000      0.0000
        10         0.0000      0.0000      0.0000      0.0000      0.0000
        11         0.0000      0.0000     -0.0069      0.0069      0.0046
        12         0.0000      0.0000      0.0000      0.0000      0.0000

 Excitation energies and oscillator strengths:
 
 Excited State   1:      Singlet-AU     5.9556 eV  208.18 nm  f=0.0000  <S**2>=0.000
      20 -> 22        -0.17556
      20 -> 23         0.47046
      21 -> 22         0.47061
      21 -> 23         0.17557
 This state for optimization and/or second-order correction.
 Total Energy, E(TD-HF/TD-KS) =  -230.503476688    
 Copying the excited state density for this state as the 1-particle RhoCI density.
 
 Excited State   2:      Singlet-AU     5.9984 eV  206.69 nm  f=0.0000  <S**2>=0.000
      20 -> 22        -0.46244
      20 -> 23        -0.17253
      21 -> 22        -0.17259
      21 -> 23         0.46251
 
 Excited State   3:      Singlet-AU     7.7076 eV  160.86 nm  f=0.7000  <S**2>=0.000
      20 -> 22         0.47306
      20 -> 23         0.15578
      21 -> 22        -0.15572
      21 -> 23         0.47299
 
 Excited State   4:      Singlet-AU     7.7076 eV  160.86 nm  f=0.7001  <S**2>=0.000
      20 -> 22        -0.15576
      20 -> 23         0.47310
      21 -> 22        -0.47295
      21 -> 23        -0.15573
 
 Excited State   5:      Singlet-AG     8.5195 eV  145.53 nm  f=0.0000  <S**2>=0.000
      21 -> 24         0.67667
 
 Excited State   6:      Singlet-AG     8.5200 eV  145.52 nm  f=0.0000  <S**2>=0.000
      20 -> 24         0.67666
 
 Excited State   7:      Singlet-AU     9.1910 eV  134.90 nm  f=0.0402  <S**2>=0.000
      17 -> 24        -0.23622
      18 -> 22         0.10591
      19 -> 23        -0.10603
      20 -> 25        -0.34629
      20 -> 26        -0.29138
      21 -> 25         0.29158
      21 -> 26        -0.34648
 
 Excited State   8:      Singlet-AU     9.2108 eV  134.61 nm  f=0.0000  <S**2>=0.000
      14 -> 30         0.16499
      18 -> 23         0.46770
      19 -> 22         0.46854
 
 Excited State   9:      Singlet-AU     9.5175 eV  130.27 nm  f=0.0000  <S**2>=0.000
      16 -> 30        -0.12891
      18 -> 22         0.44852
      18 -> 23         0.14168
      19 -> 22        -0.14176
      19 -> 23         0.45036
 
 Excited State  10:      Singlet-AU     9.5175 eV  130.27 nm  f=0.0000  <S**2>=0.000
      15 -> 30        -0.12890
      18 -> 22        -0.14190
      18 -> 23         0.44980
      19 -> 22        -0.44906
      19 -> 23        -0.14153
 
 Excited State  11:      Singlet-AU     9.5893 eV  129.29 nm  f=0.0054  <S**2>=0.000
      13 -> 30         0.10455
      18 -> 22         0.47390
      19 -> 23        -0.47228
 
 Excited State  12:      Singlet-AU     9.8902 eV  125.36 nm  f=0.0000  <S**2>=0.000
      17 -> 28        -0.12047
      20 -> 25         0.34210
      20 -> 26         0.31554
      21 -> 25         0.31539
      21 -> 26        -0.34186
      21 -> 29         0.14227
 SavETr:  write IOETrn=   770 NScale= 10 NData=  16 NLR=1 NState=   12 LETran=     226.

 **********************************************************************

            Population analysis using the SCF density.

 **********************************************************************

 Orbital symmetries:
       Occupied  (AG) (AU) (AU) (AG) (AG) (AU) (AG) (AU) (AU) (AG)
                 (AG) (AG) (AU) (AU) (AU) (AU) (AU) (AG) (AG) (AG)
                 (AG)
       Virtual   (AU) (AU) (AG) (AU) (AU) (AG) (AG) (AU) (AG) (AG)
                 (AG) (AU) (AU) (AG) (AU) (AG) (AU) (AU) (AU) (AU)
                 (AG) (AG) (AG) (AG) (AG) (AU) (AU) (AU) (AU) (AG)
                 (AG) (AG) (AU) (AG) (AU) (AU) (AU) (AG) (AG) (AG)
                 (AG) (AU) (AU) (AG) (AG) (AU) (AU) (AU) (AG) (AG)
                 (AG) (AU) (AU) (AU) (AG) (AG) (AG) (AG) (AU) (AU)
                 (AU) (AU) (AG) (AG) (AU) (AU) (AG) (AG) (AU) (AU)
                 (AU) (AG) (AG) (AG) (AU) (AU) (AG) (AG) (AU) (AU)
                 (AG) (AG) (AG) (AG) (AU) (AU) (AU) (AU) (AG) (AU)
                 (AU) (AU) (AG) (AG) (AG) (AG) (AG) (AU) (AU)
 The electronic state is 1-AG.
 Alpha  occ. eigenvalues --  -11.24251 -11.24195 -11.24195 -11.24076 -11.24075
 Alpha  occ. eigenvalues --  -11.24017  -1.14565  -1.01118  -1.01117  -0.82018
 Alpha  occ. eigenvalues --   -0.82017  -0.70331  -0.64065  -0.61361  -0.58326
 Alpha  occ. eigenvalues --   -0.58322  -0.49727  -0.49033  -0.49031  -0.33284
 Alpha  occ. eigenvalues --   -0.33283
 Alpha virt. eigenvalues --    0.13631   0.13631   0.18153   0.21959   0.21959
 Alpha virt. eigenvalues --    0.25507   0.25508   0.27124   0.34880   0.43575
 Alpha virt. eigenvalues --    0.43577   0.46721   0.46722   0.58335   0.58583
 Alpha virt. eigenvalues --    0.66151   0.66862   0.68100   0.71310   0.71311
 Alpha virt. eigenvalues --    0.73257   0.73257   0.73362   0.73363   0.74059
 Alpha virt. eigenvalues --    0.82268   0.82269   0.84356   0.84357   0.88333
 Alpha virt. eigenvalues --    0.88335   0.90907   0.97576   0.98204   1.04968
 Alpha virt. eigenvalues --    1.08000   1.08001   1.12172   1.15057   1.18494
 Alpha virt. eigenvalues --    1.18494   1.24056   1.24056   1.24340   1.24344
 Alpha virt. eigenvalues --    1.28942   1.31697   1.31699   1.46809   1.51258
 Alpha virt. eigenvalues --    1.51262   1.71817   1.74051   1.74053   1.76448
 Alpha virt. eigenvalues --    1.78728   1.85616   1.85620   1.88283   1.88290
 Alpha virt. eigenvalues --    1.89815   1.93023   1.95070   1.95072   1.95378
 Alpha virt. eigenvalues --    1.95386   2.08631   2.08636   2.11761   2.14327
 Alpha virt. eigenvalues --    2.14332   2.15100   2.15102   2.16598   2.26204
 Alpha virt. eigenvalues --    2.26206   2.27374   2.27375   2.32259   2.49379
 Alpha virt. eigenvalues --    2.55552   2.64999   2.72936   2.72937   2.75774
 Alpha virt. eigenvalues --    2.75774   2.81846   2.81853   2.86997   2.99799
 Alpha virt. eigenvalues --    3.10479   3.10482   3.12442   3.16943   3.16947
 Alpha virt. eigenvalues --    3.62821   3.62823   3.82576   4.49744
          Condensed to atoms (all electrons):
               1          2          3          4          5          6
     1  C    4.699781   0.549217  -0.050541  -0.034985  -0.050539   0.549226
     2  C    0.549217   4.699770   0.549183  -0.050539  -0.034968  -0.050524
     3  C   -0.050541   0.549183   4.699759   0.549226  -0.050524  -0.034968
     4  C   -0.034985  -0.050539   0.549226   4.699781   0.549217  -0.050541
     5  C   -0.050539  -0.034968  -0.050524   0.549217   4.699770   0.549183
     6  C    0.549226  -0.050524  -0.034968  -0.050541   0.549183   4.699759
     7  H    0.423315  -0.036026   0.006007  -0.000464   0.006007  -0.036023
     8  H   -0.036016   0.423322  -0.036027   0.006005  -0.000464   0.006005
     9  H    0.006005  -0.036029   0.423322  -0.036015   0.006006  -0.000464
    10  H   -0.000464   0.006007  -0.036023   0.423315  -0.036026   0.006007
    11  H    0.006005  -0.000464   0.006005  -0.036016   0.423322  -0.036027
    12  H   -0.036015   0.006006  -0.000464   0.006005  -0.036029   0.423322
               7          8          9         10         11         12
     1  C    0.423315  -0.036016   0.006005  -0.000464   0.006005  -0.036015
     2  C   -0.036026   0.423322  -0.036029   0.006007  -0.000464   0.006006
     3  C    0.006007  -0.036027   0.423322  -0.036023   0.006005  -0.000464
     4  C   -0.000464   0.006005  -0.036015   0.423315  -0.036016   0.006005
     5  C    0.006007  -0.000464   0.006006  -0.036026   0.423322  -0.036029
     6  C   -0.036023   0.006005  -0.000464   0.006007  -0.036027   0.423322
     7  H    0.629386  -0.008425  -0.000174   0.000038  -0.000174  -0.008427
     8  H   -0.008425   0.629360  -0.008421  -0.000174   0.000038  -0.000174
     9  H   -0.000174  -0.008421   0.629366  -0.008427  -0.000174   0.000038
    10  H    0.000038  -0.000174  -0.008427   0.629386  -0.008425  -0.000174
    11  H   -0.000174   0.000038  -0.000174  -0.008425   0.629360  -0.008421
    12  H   -0.008427  -0.000174   0.000038  -0.000174  -0.008421   0.629366
 Mulliken charges:
               1
     1  C   -0.024990
     2  C   -0.024955
     3  C   -0.024955
     4  C   -0.024990
     5  C   -0.024955
     6  C   -0.024955
     7  H    0.024961
     8  H    0.024971
     9  H    0.024968
    10  H    0.024961
    11  H    0.024971
    12  H    0.024968
 Sum of Mulliken charges =   0.00000
 Mulliken charges with hydrogens summed into heavy atoms:
               1
     1  C   -0.000029
     2  C    0.000016
     3  C    0.000013
     4  C   -0.000029
     5  C    0.000016
     6  C    0.000013
 Electronic spatial extent (au):  <R**2>=            461.1901
 Charge=              0.0000 electrons
 Dipole moment (field-independent basis, Debye):
    X=              0.0000    Y=              0.0000    Z=              0.0000  Tot=              0.0000
 Quadrupole moment (field-independent basis, Debye-Ang):
   XX=            -31.7387   YY=            -31.7392   ZZ=            -40.4594
   XY=             -0.0004   XZ=              0.0027   YZ=             -0.0056
 Traceless Quadrupole moment (field-independent basis, Debye-Ang):
   XX=              2.9071   YY=              2.9065   ZZ=             -5.8136
   XY=             -0.0004   XZ=              0.0027   YZ=             -0.0056
 Octapole moment (field-independent basis, Debye-Ang**2):
  XXX=              0.0000  YYY=              0.0000  ZZZ=              0.0000  XYY=              0.0000
  XXY=              0.0000  XXZ=              0.0000  XZZ=              0.0000  YZZ=              0.0000
  YYZ=              0.0000  XYZ=              0.0000
 Hexadecapole moment (field-independent basis, Debye-Ang**3):
 XXXX=           -271.1903 YYYY=           -271.1823 ZZZZ=            -46.4543 XXXY=              0.0075
 XXXZ=             -0.0246 YYYX=              0.0001 YYYZ=              0.0518 ZZZX=             -0.0440
 ZZZY=              0.0925 XXYY=            -90.3972 XXZZ=            -63.4887 YYZZ=            -63.4865
 XXYZ=              0.0173 YYXZ=             -0.0082 ZZXY=              0.0020
 N-N= 2.029242874114D+02 E-N=-9.423701327210D+02  KE= 2.301250420791D+02
 Symmetry AG   KE= 1.160285478647D+02
 Symmetry AU   KE= 1.140964942144D+02
 Unable to Open any file for archive entry.
 1\1\GINC-MEDUSA\SP\RTD-Full\CC-pVDZ\C6H6\PLESTRAN\28-Oct-2015\0\\# hf/
 cc-pvdz gfinput td(full,nstates=12) 6D\\Benzene singlet\\0,1\C,0,-0.20
 69851582,-0.182179772,0.0000714421\C,0,1.1916738876,-0.1823529436,0.00
 04985861\C,0,1.8910553573,1.0288676731,-0.0000660445\C,0,1.1917349868,
 2.2401336715,-0.0010564977\C,0,-0.206924055,2.2403068493,-0.0014838269
 \C,0,-0.9063055337,1.0290862369,-0.0009191682\H,0,-0.750746176,-1.1238
 955859,0.0005098114\H,0,1.7352854346,-1.124149144,0.0012705069\H,0,2.9
 784784245,1.0289339946,0.0002669247\H,0,1.7354959994,3.1818494841,-0.0
 014954845\H,0,-0.7505356043,3.1821030485,-0.0022553738\H,0,-1.99372860
 31,1.0290199075,-0.0012518757\\Version=ES64L-GDVRevI.03+\State=1-AG\HF
 =-230.7223421\MP2=-231.5407433\EFC=0.\RMSD=3.557e-09\PG=CI [X(C6H6)]\\
 @
 The archive entry for this job was punched.


 THE WORLD OF CHEMICAL REACTIONS IS LIKE A STAGE,
 ON WHICH SCENE AFTER SCENE IS CEASELESSLY PLAYED.
 THE ACTORS ON IT ARE THE ELEMENTS.
   -- CLEMENS WINKLER   BER. 30,13(1897)
 (DISCOVERER OF GERMANIUM, FEB 6, 1886)
 Job cpu time:       0 days  0 hours  0 minutes 18.6 seconds.
 Elapsed time:       0 days  0 hours  0 minutes  9.2 seconds.
 File lengths (MBytes):  RWF=    533 Int=      0 D2E=      0 Chk=     11 Scr=      1
 Normal termination of Gaussian DV at Wed Oct 28 10:04:09 2015.
 Initial command:
 /home/gauss/gdvi03p/gdv/l1.exe "/home/GauScr/Gau-4622.inp" -scrdir="/home/GauScr/"
 Entering Link 1 = /home/gauss/gdvi03p/gdv/l1.exe PID=      4647.
  
 Copyright (c) 1988,1990,1992,1993,1995,1998,2003,2009,2015,
            Gaussian, Inc.  All Rights Reserved.
  
 This is the private, development version of
 the Gaussian(R) DV system of programs. It is based on
 the Gaussian(R) 09 system (copyright 2009, Gaussian, Inc.),
 the Gaussian(R) 03 system (copyright 2003, Gaussian, Inc.),
 the Gaussian(R) 98 system (copyright 1998, Gaussian, Inc.),
 the Gaussian(R) 94 system (copyright 1995, Gaussian, Inc.),
 the Gaussian 92(TM) system (copyright 1992, Gaussian, Inc.),
 the Gaussian 90(TM) system (copyright 1990, Gaussian, Inc.),
 the Gaussian 88(TM) system (copyright 1988, Gaussian, Inc.),
 the Gaussian 86(TM) system (copyright 1986, Carnegie Mellon
 University), and the Gaussian 82(TM) system (copyright 1983,
 Carnegie Mellon University). Gaussian is a federally registered
 trademark of Gaussian, Inc.
  
 This software contains proprietary and confidential information,
 including trade secrets, belonging to Gaussian, Inc.
  
 This software is provided under written license and may be
 used, copied, transmitted, or stored only in accord with that
 written license.
  
 The following legend is applicable only to US Government
 contracts under FAR:
  
                    RESTRICTED RIGHTS LEGEND
  
 Use, reproduction and disclosure by the US Government is
 subject to restrictions as set forth in subparagraphs (a)
 and (c) of the Commercial Computer Software - Restricted
 Rights clause in FAR 52.227-19.
  
 Gaussian, Inc.
 340 Quinnipiac St., Bldg. 40, Wallingford CT 06492
  
  
 ---------------------------------------------------------------
 Warning -- This program may not be used in any manner that
 competes with the business of Gaussian, Inc. or will provide
 assistance to any competitor of Gaussian, Inc.  The licensee
 of this program is prohibited from giving any competitor of
 Gaussian, Inc. access to this program.  By using this program,
 the user acknowledges that Gaussian, Inc. is engaged in the
 business of creating and licensing software in the field of
 computational chemistry and represents and warrants to the
 licensee that it is not a competitor of Gaussian, Inc. and that
 it will not use this program in any manner prohibited above.
 ---------------------------------------------------------------
  

 Cite this work as:
 Gaussian Development Version, Revision I.03+,
 M. J. Frisch, G. W. Trucks, H. B. Schlegel, G. E. Scuseria, 
 M. A. Robb, J. R. Cheeseman, G. Scalmani, V. Barone, B. Mennucci, 
 G. A. Petersson, H. Nakatsuji, M. Caricato, X. Li, H. P. Hratchian, 
 J. Bloino, B. G. Janesko, A. F. Izmaylov, A. Marenich, F. Lipparini, 
 G. Zheng, J. L. Sonnenberg, W. Liang, M. Hada, M. Ehara, K. Toyota, 
 R. Fukuda, J. Hasegawa, M. Ishida, T. Nakajima, Y. Honda, O. Kitao, 
 H. Nakai, T. Vreven, K. Throssell, J. A. Montgomery, Jr., 
 J. E. Peralta, F. Ogliaro, M. Bearpark, J. J. Heyd, E. Brothers, 
 K. N. Kudin, V. N. Staroverov, T. Keith, R. Kobayashi, J. Normand, 
 K. Raghavachari, A. Rendell, J. C. Burant, S. S. Iyengar, J. Tomasi, 
 M. Cossi, N. Rega, J. M. Millam, M. Klene, J. E. Knox, J. B. Cross, 
 V. Bakken, C. Adamo, J. Jaramillo, R. Gomperts, R. E. Stratmann, 
 O. Yazyev, A. J. Austin, R. Cammi, C. Pomelli, J. W. Ochterski, 
 R. L. Martin, K. Morokuma, V. G. Zakrzewski, G. A. Voth, 
 P. Salvador, J. J. Dannenberg, S. Dapprich, P. V. Parandekar, 
 N. J. Mayhall, A. D. Daniels, O. Farkas, J. B. Foresman, 
 J. V. Ortiz, J. Cioslowski, and D. J. Fox, 
 Gaussian, Inc., Wallingford CT, 2014.
 
 *******************************************
 Gaussian DV:  ES64L-GDVRevI.03+  2-May-2015
                 28-Oct-2015 
 *******************************************
 %chk=benz
 %nproc=2
 Will use up to    2 processors via shared memory.
 -----------------------------------------------------------------
 # hf/cc-pvdz geom=check guess=read td(full,nstates=12,triplet) 6D
 -----------------------------------------------------------------
 1/29=2,38=1,172=1/1;
 2/12=2,40=1/2;
 3/5=16,8=2,11=9,14=-4,25=1,30=1,116=-2/1,2,3,8;
 4/5=1/1;
 5/5=2,38=6/2;
 8/6=1,10=90,108=12/1,4;
 9/41=12,42=3,48=3,70=2/14;
 6/7=2,8=2,9=2,10=2/1;
 99/5=1,9=1/99;
 ---------------
 Benzene triplet
 ---------------
 Structure from the checkpoint file:  "benz.chk"
 Charge =  0 Multiplicity = 1
 Z-Matrix found in chk file.
 C,0,-0.2069851582,-0.182179772,0.0000714421
 C,0,1.1916738876,-0.1823529436,0.0004985861
 C,0,1.8910553573,1.0288676731,-0.0000660445
 C,0,1.1917349868,2.2401336715,-0.0010564977
 C,0,-0.206924055,2.2403068493,-0.0014838269
 C,0,-0.9063055337,1.0290862369,-0.0009191682
 H,0,-0.750746176,-1.1238955859,0.0005098114
 H,0,1.7352854346,-1.124149144,0.0012705069
 H,0,2.9784784245,1.0289339946,0.0002669247
 H,0,1.7354959994,3.1818494841,-0.0014954845
 H,0,-0.7505356043,3.1821030485,-0.0022553738
 H,0,-1.9937286031,1.0290199075,-0.0012518757
 Recover connectivity data from disk.
                          Input orientation:                          
 ---------------------------------------------------------------------
 Center     Atomic      Atomic             Coordinates (Angstroms)
 Number     Number       Type             X           Y           Z
 ---------------------------------------------------------------------
      1          6           0       -0.206985   -0.182180    0.000071
      2          6           0        1.191674   -0.182353    0.000499
      3          6           0        1.891055    1.028868   -0.000066
      4          6           0        1.191735    2.240134   -0.001057
      5          6           0       -0.206924    2.240307   -0.001484
      6          6           0       -0.906306    1.029086   -0.000919
      7          1           0       -0.750746   -1.123896    0.000510
      8          1           0        1.735285   -1.124149    0.001271
      9          1           0        2.978478    1.028934    0.000267
     10          1           0        1.735496    3.181849   -0.001495
     11          1           0       -0.750536    3.182103   -0.002256
     12          1           0       -1.993729    1.029020   -0.001252
 ---------------------------------------------------------------------
                    Distance matrix (angstroms):
                    1          2          3          4          5
     1  C    0.000000
     2  C    1.398659   0.000000
     3  C    2.422480   1.398639   0.000000
     4  C    2.797145   2.422487   1.398648   0.000000
     5  C    2.422487   2.797385   2.422623   1.398659   0.000000
     6  C    1.398648   2.422623   2.797361   2.422480   1.398639
     7  H    1.087430   2.158587   3.407859   3.884576   3.407874
     8  H    2.158639   1.087425   2.158645   3.407910   3.884810
     9  H    3.407928   2.158677   1.087423   2.158578   3.407964
    10  H    3.884576   3.407874   2.158595   1.087430   2.158587
    11  H    3.407910   3.884810   3.407995   2.158639   1.087425
    12  H    2.158578   3.407964   3.884784   3.407928   2.158677
                    6          7          8          9         10
     6  C    0.000000
     7  H    2.158595   0.000000
     8  H    3.407995   2.486032   0.000000
     9  H    3.884784   4.306018   2.486221   0.000000
    10  H    3.407859   4.972006   4.306000   2.485971   0.000000
    11  H    2.158645   4.306000   4.972236   4.306006   2.486032
    12  H    1.087423   2.485971   4.306006   4.972207   4.306018
                   11         12
    11  H    0.000000
    12  H    2.486221   0.000000
 Stoichiometry    C6H6
 Framework group  CI[X(C6H6)]
 Deg. of freedom    15
 Full point group                 CI      NOp   2
 Largest Abelian subgroup         CI      NOp   2
 Largest concise Abelian subgroup CI      NOp   2
                         Standard orientation:                         
 ---------------------------------------------------------------------
 Center     Atomic      Atomic             Coordinates (Angstroms)
 Number     Number       Type             X           Y           Z
 ---------------------------------------------------------------------
      1          6           0       -0.699360   -1.211157    0.000564
      2          6           0        0.699299   -1.211330    0.000991
      3          6           0        1.398680   -0.000109    0.000427
      4          6           0        0.699360    1.211157   -0.000564
      5          6           0       -0.699299    1.211330   -0.000991
      6          6           0       -1.398680    0.000109   -0.000427
      7          1           0       -1.243121   -2.152873    0.001002
      8          1           0        1.242911   -2.153126    0.001763
      9          1           0        2.486104   -0.000043    0.000760
     10          1           0        1.243121    2.152873   -0.001002
     11          1           0       -1.242911    2.153126   -0.001763
     12          1           0       -2.486104    0.000043   -0.000760
 ---------------------------------------------------------------------
 Rotational constants (GHZ):      5.6717105      5.6710222      2.8356832
 Standard basis: CC-pVDZ (6D, 7F)
 There are    60 symmetry adapted cartesian basis functions of AG  symmetry.
 There are    60 symmetry adapted cartesian basis functions of AU  symmetry.
 There are    60 symmetry adapted basis functions of AG  symmetry.
 There are    60 symmetry adapted basis functions of AU  symmetry.
   120 basis functions,   240 primitive gaussians,   120 cartesian basis functions
    21 alpha electrons       21 beta electrons
       nuclear repulsion energy       202.9242874114 Hartrees.
 NAtoms=   12 NActive=   12 NUniq=    6 SFac= 4.00D+00 NAtFMM=   60 NAOKFM=F Big=F
 Integral buffers will be    131072 words long.
 Raffenetti 1 integral format.
 Two-electron integral symmetry is turned on.
 One-electron integrals computed using PRISM.
 NBasis=   120 RedAO= T EigKep=  3.42D-04  NBF=    60    60
 NBsUse=   120 1.00D-06 EigRej= -1.00D+00 NBFU=    60    60
 Initial guess from the checkpoint file:  "benz.chk"
 B after Tr=     0.000000    0.000000    0.000000
         Rot=    1.000000    0.000000    0.000000    0.000000 Ang=   0.00 deg.
 Initial guess orbital symmetries:
       Occupied  (AG) (AU) (AU) (AG) (AG) (AU) (AG) (AU) (AU) (AG)
                 (AG) (AG) (AU) (AU) (AU) (AU) (AU) (AG) (AG) (AG)
                 (AG)
       Virtual   (AU) (AU) (AG) (AU) (AU) (AG) (AG) (AU) (AG) (AG)
                 (AG) (AU) (AU) (AG) (AU) (AG) (AU) (AU) (AU) (AU)
                 (AG) (AG) (AG) (AG) (AG) (AU) (AU) (AU) (AU) (AG)
                 (AG) (AG) (AU) (AG) (AU) (AU) (AU) (AG) (AG) (AG)
                 (AG) (AU) (AU) (AG) (AG) (AU) (AU) (AU) (AG) (AG)
                 (AG) (AU) (AU) (AU) (AG) (AG) (AG) (AG) (AU) (AU)
                 (AU) (AU) (AG) (AG) (AU) (AU) (AG) (AG) (AU) (AU)
                 (AU) (AG) (AG) (AG) (AU) (AU) (AG) (AG) (AU) (AU)
                 (AG) (AG) (AG) (AG) (AU) (AU) (AU) (AU) (AG) (AU)
                 (AU) (AU) (AG) (AG) (AG) (AG) (AG) (AU) (AU)
 Requested convergence on RMS density matrix=1.00D-08 within 128 cycles.
 Requested convergence on MAX density matrix=1.00D-06.
 Requested convergence on             energy=1.00D-06.
 No special actions if energy rises.
 SCF Done:  E(RHF) =  -230.722342149     A.U. after    1 cycles
            NFock=  1  Conv=0.92D-09     -V/T= 2.0026
 Range of M.O.s used for correlation:     1   120
 NBasis=   120 NAE=    21 NBE=    21 NFC=     0 NFV=     0
 NROrb=    120 NOA=    21 NOB=    21 NVA=    99 NVB=    99

 **** Warning!!: The largest alpha MO coefficient is  0.11628315D+02

 Semi-Direct transformation.
 ModeAB=           4 MOrb=            21 LenV=      33017944
 LASXX=      5799696 LTotXX=     5799696 LenRXX=    11798997
 LTotAB=     5999301 MaxLAS=     9480240 LenRXY=           0
 NonZer=    17598693 LenScr=    27166720 LnRSAI=     9480240
 LnScr1=    14960640 LExtra=           0 Total=     63406597
 MaxDsk=          -1 SrtSym=           T ITran=            3
 JobTyp=0 Pass  1:  I=   1 to  21.
 (rs|ai) integrals will be sorted in core.
 Spin components of T(2) and E(2):
     alpha-alpha T2 =       0.4186316258D-01 E2=     -0.1069068919D+00
     alpha-beta  T2 =       0.2192782888D+00 E2=     -0.6045873803D+00
     beta-beta   T2 =       0.4186316258D-01 E2=     -0.1069068919D+00
 ANorm=    0.1141492275D+01
 E2 =    -0.8184011642D+00 EUMP2 =    -0.23154074331308D+03
 Orbital symmetries:
       Occupied  (AG) (AU) (AU) (AG) (AG) (AU) (AG) (AU) (AU) (AG)
                 (AG) (AG) (AU) (AU) (AU) (AU) (AU) (AG) (AG) (AG)
                 (AG)
       Virtual   (AU) (AU) (AG) (AU) (AU) (AG) (AG) (AU) (AG) (AG)
                 (AG) (AU) (AU) (AG) (AU) (AG) (AU) (AU) (AU) (AU)
                 (AG) (AG) (AG) (AG) (AG) (AU) (AU) (AU) (AU) (AG)
                 (AG) (AG) (AU) (AG) (AU) (AU) (AU) (AG) (AG) (AG)
                 (AG) (AU) (AU) (AG) (AG) (AU) (AU) (AU) (AG) (AG)
                 (AG) (AU) (AU) (AU) (AG) (AG) (AG) (AG) (AU) (AU)
                 (AU) (AU) (AG) (AG) (AU) (AU) (AG) (AG) (AU) (AU)
                 (AU) (AG) (AG) (AG) (AU) (AU) (AG) (AG) (AU) (AU)
                 (AG) (AG) (AG) (AG) (AU) (AU) (AU) (AU) (AG) (AU)
                 (AU) (AU) (AG) (AG) (AG) (AG) (AG) (AU) (AU)
    48 initial guesses have been made.
 Convergence on wavefunction:    0.001000000000000
 Iteration     1 Dimension    48 NMult     0 NNew     48
 New state      1 was old state      2
 New state      2 was old state      1
 New state      5 was old state     11
 New state      6 was old state     12
 New state      7 was old state      5
 New state      8 was old state      6
 New state      9 was old state     13
 New state     10 was old state      8
 New state     11 was old state      9
 New state     12 was old state     10
 Iteration     2 Dimension    72 NMult    48 NNew     24
 Iteration     3 Dimension    96 NMult    72 NNew     24
 New state     10 was old state     11
 New state     11 was old state     12
 New state     12 was old state     10
 Iteration     4 Dimension   120 NMult    96 NNew     24
 New state     10 was old state     11
 New state     11 was old state     10
 Iteration     5 Dimension   142 NMult   120 NNew     22
 Iteration     6 Dimension   150 NMult   142 NNew      8
 Iteration     7 Dimension   156 NMult   150 NNew      6
 New state      9 was old state     10
 New state     10 was old state      9
 No map to state     12
 Iteration     8 Dimension   164 NMult   156 NNew      8
 Iteration     9 Dimension   171 NMult   164 NNew      7
 Iteration    10 Dimension   176 NMult   171 NNew      5
 ***********************************************************************
 Excited states from <AA,BB:AA,BB> singles matrix:
 ***********************************************************************
 
 Ground to excited state transition densities written to RWF  633
 Ground to excited state transition electric dipole moments (Au):
       state          X           Y           Z        Dip. S.      Osc.
         1         0.0000      0.0000      0.0000      0.0000      0.0000
         2         0.0000      0.0000      0.0000      0.0000      0.0000
         3         0.0000      0.0000      0.0000      0.0000      0.0000
         4         0.0000      0.0000      0.0000      0.0000      0.0000
         5         0.0000      0.0000      0.0000      0.0000      0.0000
         6         0.0000      0.0000      0.0000      0.0000      0.0000
         7         0.0000      0.0000      0.0000      0.0000      0.0000
         8         0.0000      0.0000      0.0000      0.0000      0.0000
         9         0.0000      0.0000      0.0000      0.0000      0.0000
        10         0.0000      0.0000      0.0000      0.0000      0.0000
        11         0.0000      0.0000      0.0000      0.0000      0.0000
        12         0.0000      0.0000      0.0000      0.0000      0.0000
 Ground to excited state transition velocity dipole moments (Au):
       state          X           Y           Z        Dip. S.      Osc.
         1         0.0000      0.0000      0.0000      0.0000      0.0000
         2         0.0000      0.0000      0.0000      0.0000      0.0000
         3         0.0000      0.0000      0.0000      0.0000      0.0000
         4         0.0000      0.0000      0.0000      0.0000      0.0000
         5         0.0000      0.0000      0.0000      0.0000      0.0000
         6         0.0000      0.0000      0.0000      0.0000      0.0000
         7         0.0000      0.0000      0.0000      0.0000      0.0000
         8         0.0000      0.0000      0.0000      0.0000      0.0000
         9         0.0000      0.0000      0.0000      0.0000      0.0000
        10         0.0000      0.0000      0.0000      0.0000      0.0000
        11         0.0000      0.0000      0.0000      0.0000      0.0000
        12         0.0000      0.0000      0.0000      0.0000      0.0000
 Ground to excited state transition magnetic dipole moments (Au):
       state          X           Y           Z
         1         0.0000      0.0000      0.0000
         2         0.0000      0.0000      0.0000
         3         0.0000      0.0000      0.0000
         4         0.0000      0.0000      0.0000
         5         0.0000      0.0000      0.0000
         6         0.0000      0.0000      0.0000
         7         0.0000      0.0000      0.0000
         8         0.0000      0.0000      0.0000
         9         0.0000      0.0000      0.0000
        10         0.0000      0.0000      0.0000
        11         0.0000      0.0000      0.0000
        12         0.0000      0.0000      0.0000
 Ground to excited state transition velocity quadrupole moments (Au):
       state          XX          YY          ZZ          XY          XZ          YZ
         1         0.0000      0.0000      0.0000      0.0000      0.0000      0.0000
         2         0.0000      0.0000      0.0000      0.0000      0.0000      0.0000
         3         0.0000      0.0000      0.0000      0.0000      0.0000      0.0000
         4         0.0000      0.0000      0.0000      0.0000      0.0000      0.0000
         5         0.0000      0.0000      0.0000      0.0000      0.0000      0.0000
         6         0.0000      0.0000      0.0000      0.0000      0.0000      0.0000
         7         0.0000      0.0000      0.0000      0.0000      0.0000      0.0000
         8         0.0000      0.0000      0.0000      0.0000      0.0000      0.0000
         9         0.0000      0.0000      0.0000      0.0000      0.0000      0.0000
        10         0.0000      0.0000      0.0000      0.0000      0.0000      0.0000
        11         0.0000      0.0000      0.0000      0.0000      0.0000      0.0000
        12         0.0000      0.0000      0.0000      0.0000      0.0000      0.0000
 <0|del|b> * <b|rxdel|0> + <0|del|b> * <b|delr+rdel|0>
 Rotatory Strengths (R) in cgs (10**-40 erg-esu-cm/Gauss)
       state          XX          YY          ZZ    R(velocity)    E-M Angle
         1         0.0000      0.0000      0.0000      0.0000       90.00
         2         0.0000      0.0000      0.0000      0.0000       90.00
         3         0.0000      0.0000      0.0000      0.0000       90.00
         4         0.0000      0.0000      0.0000      0.0000       90.00
         5         0.0000      0.0000      0.0000      0.0000       90.00
         6         0.0000      0.0000      0.0000      0.0000       90.00
         7         0.0000      0.0000      0.0000      0.0000       90.00
         8         0.0000      0.0000      0.0000      0.0000       90.00
         9         0.0000      0.0000      0.0000      0.0000       90.00
        10         0.0000      0.0000      0.0000      0.0000       90.00
        11         0.0000      0.0000      0.0000      0.0000       90.00
        12         0.0000      0.0000      0.0000      0.0000       90.00
 1/2[<0|r|b>*<b|rxdel|0> + (<0|rxdel|b>*<b|r|0>)*]
 Rotatory Strengths (R) in cgs (10**-40 erg-esu-cm/Gauss)
       state          XX          YY          ZZ     R(length)
         1         0.0000      0.0000      0.0000      0.0000
         2         0.0000      0.0000      0.0000      0.0000
         3         0.0000      0.0000      0.0000      0.0000
         4         0.0000      0.0000      0.0000      0.0000
         5         0.0000      0.0000      0.0000      0.0000
         6         0.0000      0.0000      0.0000      0.0000
         7         0.0000      0.0000      0.0000      0.0000
         8         0.0000      0.0000      0.0000      0.0000
         9         0.0000      0.0000      0.0000      0.0000
        10         0.0000      0.0000      0.0000      0.0000
        11         0.0000      0.0000      0.0000      0.0000
        12         0.0000      0.0000      0.0000      0.0000
  1/2[<0|del|b>*<b|r|0> + (<0|r|b>*<b|del|0>)*] (Au)
       state          X           Y           Z        Dip. S.   Osc.(frdel)
         1         0.0000      0.0000      0.0000      0.0000      0.0000
         2         0.0000      0.0000      0.0000      0.0000      0.0000
         3         0.0000      0.0000      0.0000      0.0000      0.0000
         4         0.0000      0.0000      0.0000      0.0000      0.0000
         5         0.0000      0.0000      0.0000      0.0000      0.0000
         6         0.0000      0.0000      0.0000      0.0000      0.0000
         7         0.0000      0.0000      0.0000      0.0000      0.0000
         8         0.0000      0.0000      0.0000      0.0000      0.0000
         9         0.0000      0.0000      0.0000      0.0000      0.0000
        10         0.0000      0.0000      0.0000      0.0000      0.0000
        11         0.0000      0.0000      0.0000      0.0000      0.0000
        12         0.0000      0.0000      0.0000      0.0000      0.0000

 Excitation energies and oscillator strengths:
 
 Excited State   1:      Triplet-AU     -2.3178 eV    -534.93 nm  f=-0.0000  <S**2>=2.000
      17 -> 30         0.22499
      20 -> 22        -0.51349
      20 -> 23        -0.19141
      21 -> 22        -0.19144
      21 -> 23         0.51352
      17 <- 30         0.13843
      20 <- 22        -0.25279
      21 <- 23         0.25279
 This state for optimization and/or second-order correction.
 Total Energy, E(TD-HF/TD-KS) =  -230.807518127    
 Copying the excited state density for this state as the 1-particle RhoCI density.
 
 Excited State   2:      Triplet-AU     4.7861 eV  259.05 nm  f=0.0000  <S**2>=2.000
      20 -> 22         0.19103
      20 -> 23        -0.46180
      21 -> 22         0.46231
      21 -> 23         0.19124
 
 Excited State   3:      Triplet-AU     4.7862 eV  259.04 nm  f=0.0000  <S**2>=2.000
      20 -> 22         0.46210
      20 -> 23         0.19106
      21 -> 22        -0.19122
      21 -> 23         0.46201
 
 Excited State   4:      Triplet-AU     5.2277 eV  237.17 nm  f=0.0000  <S**2>=2.000
      20 -> 22        -0.17694
      20 -> 23         0.47488
      21 -> 22         0.47431
      21 -> 23         0.17690
 
 Excited State   5:      Triplet-AG     7.3991 eV  167.57 nm  f=0.0000  <S**2>=2.000
      17 -> 22         0.52239
      17 -> 23        -0.24093
      20 -> 30        -0.28287
      21 -> 30        -0.28492
 
 Excited State   6:      Triplet-AG     7.3992 eV  167.56 nm  f=0.0000  <S**2>=2.000
      17 -> 22         0.24094
      17 -> 23         0.52237
      20 -> 30        -0.28491
      21 -> 30         0.28290
 
 Excited State   7:      Triplet-AG     8.2568 eV  150.16 nm  f=0.0000  <S**2>=2.000
      17 -> 25        -0.10112
      17 -> 26         0.10958
      20 -> 27         0.10923
      21 -> 24         0.66478
      21 -> 28         0.10924
 
 Excited State   8:      Triplet-AG     8.2573 eV  150.15 nm  f=0.0000  <S**2>=2.000
      17 -> 25         0.10959
      17 -> 26         0.10112
      20 -> 24         0.66478
      20 -> 28        -0.10922
      21 -> 27         0.10927
 
 Excited State   9:      Triplet-AU     8.7834 eV  141.16 nm  f=0.0000  <S**2>=2.000
      14 -> 30         0.18369
      18 -> 23         0.46120
      19 -> 22         0.46257
 
 Excited State  10:      Triplet-AU     8.8203 eV  140.57 nm  f=0.0000  <S**2>=2.000
      17 -> 24        -0.23835
      18 -> 22        -0.17826
      19 -> 23         0.17877
      20 -> 25        -0.32599
      20 -> 26        -0.27251
      21 -> 25         0.27267
      21 -> 26        -0.32615
 
 Excited State  11:      Triplet-AU     8.9624 eV  138.34 nm  f=0.0000  <S**2>=2.000
      12 -> 23         0.10114
      16 -> 30        -0.15600
      18 -> 22         0.44063
      18 -> 23         0.17219
      19 -> 22        -0.17233
      19 -> 23         0.44428
 
 Excited State  12:      Triplet-AU     8.9625 eV  138.34 nm  f=0.0000  <S**2>=2.000
      12 -> 22         0.10114
      15 -> 30        -0.15598
      18 -> 22        -0.17251
      18 -> 23         0.44305
      19 -> 22        -0.44187
      19 -> 23        -0.17201
 SavETr:  write IOETrn=   770 NScale= 10 NData=  16 NLR=1 NState=   12 LETran=     226.

 **********************************************************************

            Population analysis using the SCF density.

 **********************************************************************

 Orbital symmetries:
       Occupied  (AG) (AU) (AU) (AG) (AG) (AU) (AG) (AU) (AU) (AG)
                 (AG) (AG) (AU) (AU) (AU) (AU) (AU) (AG) (AG) (AG)
                 (AG)
       Virtual   (AU) (AU) (AG) (AU) (AU) (AG) (AG) (AU) (AG) (AG)
                 (AG) (AU) (AU) (AG) (AU) (AG) (AU) (AU) (AU) (AU)
                 (AG) (AG) (AG) (AG) (AG) (AU) (AU) (AU) (AU) (AG)
                 (AG) (AG) (AU) (AG) (AU) (AU) (AU) (AG) (AG) (AG)
                 (AG) (AU) (AU) (AG) (AG) (AU) (AU) (AU) (AG) (AG)
                 (AG) (AU) (AU) (AU) (AG) (AG) (AG) (AG) (AU) (AU)
                 (AU) (AU) (AG) (AG) (AU) (AU) (AG) (AG) (AU) (AU)
                 (AU) (AG) (AG) (AG) (AU) (AU) (AG) (AG) (AU) (AU)
                 (AG) (AG) (AG) (AG) (AU) (AU) (AU) (AU) (AG) (AU)
                 (AU) (AU) (AG) (AG) (AG) (AG) (AG) (AU) (AU)
 The electronic state is 1-AG.
 Alpha  occ. eigenvalues --  -11.24251 -11.24195 -11.24195 -11.24076 -11.24075
 Alpha  occ. eigenvalues --  -11.24017  -1.14565  -1.01118  -1.01117  -0.82018
 Alpha  occ. eigenvalues --   -0.82017  -0.70331  -0.64065  -0.61361  -0.58326
 Alpha  occ. eigenvalues --   -0.58322  -0.49727  -0.49033  -0.49031  -0.33284
 Alpha  occ. eigenvalues --   -0.33283
 Alpha virt. eigenvalues --    0.13631   0.13631   0.18153   0.21959   0.21959
 Alpha virt. eigenvalues --    0.25507   0.25508   0.27124   0.34880   0.43575
 Alpha virt. eigenvalues --    0.43577   0.46721   0.46722   0.58335   0.58583
 Alpha virt. eigenvalues --    0.66151   0.66862   0.68100   0.71310   0.71311
 Alpha virt. eigenvalues --    0.73257   0.73257   0.73362   0.73363   0.74059
 Alpha virt. eigenvalues --    0.82268   0.82269   0.84356   0.84357   0.88334
 Alpha virt. eigenvalues --    0.88335   0.90907   0.97576   0.98204   1.04968
 Alpha virt. eigenvalues --    1.08000   1.08001   1.12172   1.15057   1.18494
 Alpha virt. eigenvalues --    1.18494   1.24056   1.24056   1.24340   1.24344
 Alpha virt. eigenvalues --    1.28942   1.31697   1.31699   1.46809   1.51258
 Alpha virt. eigenvalues --    1.51262   1.71817   1.74051   1.74053   1.76448
 Alpha virt. eigenvalues --    1.78728   1.85616   1.85620   1.88283   1.88290
 Alpha virt. eigenvalues --    1.89815   1.93023   1.95070   1.95072   1.95378
 Alpha virt. eigenvalues --    1.95386   2.08631   2.08636   2.11761   2.14327
 Alpha virt. eigenvalues --    2.14332   2.15100   2.15102   2.16598   2.26204
 Alpha virt. eigenvalues --    2.26206   2.27374   2.27375   2.32259   2.49379
 Alpha virt. eigenvalues --    2.55552   2.64999   2.72936   2.72937   2.75774
 Alpha virt. eigenvalues --    2.75774   2.81846   2.81853   2.86997   2.99799
 Alpha virt. eigenvalues --    3.10479   3.10482   3.12442   3.16943   3.16947
 Alpha virt. eigenvalues --    3.62821   3.62823   3.82576   4.49744
          Condensed to atoms (all electrons):
               1          2          3          4          5          6
     1  C    4.699781   0.549217  -0.050541  -0.034985  -0.050539   0.549226
     2  C    0.549217   4.699770   0.549183  -0.050539  -0.034968  -0.050524
     3  C   -0.050541   0.549183   4.699759   0.549226  -0.050524  -0.034968
     4  C   -0.034985  -0.050539   0.549226   4.699781   0.549217  -0.050541
     5  C   -0.050539  -0.034968  -0.050524   0.549217   4.699770   0.549183
     6  C    0.549226  -0.050524  -0.034968  -0.050541   0.549183   4.699759
     7  H    0.423315  -0.036026   0.006007  -0.000464   0.006007  -0.036023
     8  H   -0.036016   0.423322  -0.036027   0.006005  -0.000464   0.006005
     9  H    0.006005  -0.036029   0.423322  -0.036015   0.006006  -0.000464
    10  H   -0.000464   0.006007  -0.036023   0.423315  -0.036026   0.006007
    11  H    0.006005  -0.000464   0.006005  -0.036016   0.423322  -0.036027
    12  H   -0.036015   0.006006  -0.000464   0.006005  -0.036029   0.423322
               7          8          9         10         11         12
     1  C    0.423315  -0.036016   0.006005  -0.000464   0.006005  -0.036015
     2  C   -0.036026   0.423322  -0.036029   0.006007  -0.000464   0.006006
     3  C    0.006007  -0.036027   0.423322  -0.036023   0.006005  -0.000464
     4  C   -0.000464   0.006005  -0.036015   0.423315  -0.036016   0.006005
     5  C    0.006007  -0.000464   0.006006  -0.036026   0.423322  -0.036029
     6  C   -0.036023   0.006005  -0.000464   0.006007  -0.036027   0.423322
     7  H    0.629386  -0.008425  -0.000174   0.000038  -0.000174  -0.008427
     8  H   -0.008425   0.629360  -0.008421  -0.000174   0.000038  -0.000174
     9  H   -0.000174  -0.008421   0.629366  -0.008427  -0.000174   0.000038
    10  H    0.000038  -0.000174  -0.008427   0.629386  -0.008425  -0.000174
    11  H   -0.000174   0.000038  -0.000174  -0.008425   0.629360  -0.008421
    12  H   -0.008427  -0.000174   0.000038  -0.000174  -0.008421   0.629366
 Mulliken charges:
               1
     1  C   -0.024990
     2  C   -0.024955
     3  C   -0.024955
     4  C   -0.024990
     5  C   -0.024955
     6  C   -0.024955
     7  H    0.024961
     8  H    0.024971
     9  H    0.024968
    10  H    0.024961
    11  H    0.024971
    12  H    0.024968
 Sum of Mulliken charges =   0.00000
 Mulliken charges with hydrogens summed into heavy atoms:
               1
     1  C   -0.000029
     2  C    0.000016
     3  C    0.000013
     4  C   -0.000029
     5  C    0.000016
     6  C    0.000013
 Electronic spatial extent (au):  <R**2>=            461.1901
 Charge=              0.0000 electrons
 Dipole moment (field-independent basis, Debye):
    X=              0.0000    Y=              0.0000    Z=              0.0000  Tot=              0.0000
 Quadrupole moment (field-independent basis, Debye-Ang):
   XX=            -31.7387   YY=            -31.7392   ZZ=            -40.4594
   XY=             -0.0004   XZ=              0.0027   YZ=             -0.0056
 Traceless Quadrupole moment (field-independent basis, Debye-Ang):
   XX=              2.9071   YY=              2.9065   ZZ=             -5.8136
   XY=             -0.0004   XZ=              0.0027   YZ=             -0.0056
 Octapole moment (field-independent basis, Debye-Ang**2):
  XXX=              0.0000  YYY=              0.0000  ZZZ=              0.0000  XYY=              0.0000
  XXY=              0.0000  XXZ=              0.0000  XZZ=              0.0000  YZZ=              0.0000
  YYZ=              0.0000  XYZ=              0.0000
 Hexadecapole moment (field-independent basis, Debye-Ang**3):
 XXXX=           -271.1903 YYYY=           -271.1823 ZZZZ=            -46.4543 XXXY=              0.0075
 XXXZ=             -0.0246 YYYX=              0.0001 YYYZ=              0.0518 ZZZX=             -0.0440
 ZZZY=              0.0925 XXYY=            -90.3972 XXZZ=            -63.4887 YYZZ=            -63.4865
 XXYZ=              0.0173 YYXZ=             -0.0082 ZZXY=              0.0020
 N-N= 2.029242874114D+02 E-N=-9.423701327051D+02  KE= 2.301250421239D+02
 Symmetry AG   KE= 1.160285479104D+02
 Symmetry AU   KE= 1.140964942135D+02
 Unable to Open any file for archive entry.
 1\1\GINC-MEDUSA\SP\RTD-Full\CC-pVDZ\C6H6\PLESTRAN\28-Oct-2015\0\\# hf/
 cc-pvdz geom=check guess=read td(full,nstates=12,triplet) 6D\\Benzene 
 triplet\\0,1\C,0,-0.2069851582,-0.182179772,0.0000714421\C,0,1.1916738
 876,-0.1823529436,0.0004985861\C,0,1.8910553573,1.0288676731,-0.000066
 0445\C,0,1.1917349868,2.2401336715,-0.0010564977\C,0,-0.206924055,2.24
 03068493,-0.0014838269\C,0,-0.9063055337,1.0290862369,-0.0009191682\H,
 0,-0.750746176,-1.1238955859,0.0005098114\H,0,1.7352854346,-1.12414914
 4,0.0012705069\H,0,2.9784784245,1.0289339946,0.0002669247\H,0,1.735495
 9994,3.1818494841,-0.0014954845\H,0,-0.7505356043,3.1821030485,-0.0022
 553738\H,0,-1.9937286031,1.0290199075,-0.0012518757\\Version=ES64L-GDV
 RevI.03+\State=1-AG\HF=-230.7223421\MP2=-231.5407433\EFC=0.\RMSD=9.220
 e-10\PG=CI [X(C6H6)]\\@
 The archive entry for this job was punched.


 LIFE CAN ONLY BE UNDERSTOOD BACKWARD, BUT MUST
 BE LIVED FORWARD. -- KIRKEGAARD
 Job cpu time:       0 days  0 hours  0 minutes 15.2 seconds.
 Elapsed time:       0 days  0 hours  0 minutes  7.5 seconds.
 File lengths (MBytes):  RWF=    533 Int=      0 D2E=      0 Chk=     11 Scr=      1
 Normal termination of Gaussian DV at Wed Oct 28 10:04:17 2015.
