 Entering Gaussian System, Link 0=gdv
 Input=benzene_sto3g_CIS.com
 Output=benzene_sto3g_CIS.log
 Initial command:
 /home/gauss/gdvi03p/gdv/l1.exe "/home/GauScr/Gau-4554.inp" -scrdir="/home/GauScr/"
 Entering Link 1 = /home/gauss/gdvi03p/gdv/l1.exe PID=      4555.
  
 Copyright (c) 1988,1990,1992,1993,1995,1998,2003,2009,2015,
            Gaussian, Inc.  All Rights Reserved.
  
 This is the private, development version of
 the Gaussian(R) DV system of programs. It is based on
 the Gaussian(R) 09 system (copyright 2009, Gaussian, Inc.),
 the Gaussian(R) 03 system (copyright 2003, Gaussian, Inc.),
 the Gaussian(R) 98 system (copyright 1998, Gaussian, Inc.),
 the Gaussian(R) 94 system (copyright 1995, Gaussian, Inc.),
 the Gaussian 92(TM) system (copyright 1992, Gaussian, Inc.),
 the Gaussian 90(TM) system (copyright 1990, Gaussian, Inc.),
 the Gaussian 88(TM) system (copyright 1988, Gaussian, Inc.),
 the Gaussian 86(TM) system (copyright 1986, Carnegie Mellon
 University), and the Gaussian 82(TM) system (copyright 1983,
 Carnegie Mellon University). Gaussian is a federally registered
 trademark of Gaussian, Inc.
  
 This software contains proprietary and confidential information,
 including trade secrets, belonging to Gaussian, Inc.
  
 This software is provided under written license and may be
 used, copied, transmitted, or stored only in accord with that
 written license.
  
 The following legend is applicable only to US Government
 contracts under FAR:
  
                    RESTRICTED RIGHTS LEGEND
  
 Use, reproduction and disclosure by the US Government is
 subject to restrictions as set forth in subparagraphs (a)
 and (c) of the Commercial Computer Software - Restricted
 Rights clause in FAR 52.227-19.
  
 Gaussian, Inc.
 340 Quinnipiac St., Bldg. 40, Wallingford CT 06492
  
  
 ---------------------------------------------------------------
 Warning -- This program may not be used in any manner that
 competes with the business of Gaussian, Inc. or will provide
 assistance to any competitor of Gaussian, Inc.  The licensee
 of this program is prohibited from giving any competitor of
 Gaussian, Inc. access to this program.  By using this program,
 the user acknowledges that Gaussian, Inc. is engaged in the
 business of creating and licensing software in the field of
 computational chemistry and represents and warrants to the
 licensee that it is not a competitor of Gaussian, Inc. and that
 it will not use this program in any manner prohibited above.
 ---------------------------------------------------------------
  

 Cite this work as:
 Gaussian Development Version, Revision I.03+,
 M. J. Frisch, G. W. Trucks, H. B. Schlegel, G. E. Scuseria, 
 M. A. Robb, J. R. Cheeseman, G. Scalmani, V. Barone, B. Mennucci, 
 G. A. Petersson, H. Nakatsuji, M. Caricato, X. Li, H. P. Hratchian, 
 J. Bloino, B. G. Janesko, A. F. Izmaylov, A. Marenich, F. Lipparini, 
 G. Zheng, J. L. Sonnenberg, W. Liang, M. Hada, M. Ehara, K. Toyota, 
 R. Fukuda, J. Hasegawa, M. Ishida, T. Nakajima, Y. Honda, O. Kitao, 
 H. Nakai, T. Vreven, K. Throssell, J. A. Montgomery, Jr., 
 J. E. Peralta, F. Ogliaro, M. Bearpark, J. J. Heyd, E. Brothers, 
 K. N. Kudin, V. N. Staroverov, T. Keith, R. Kobayashi, J. Normand, 
 K. Raghavachari, A. Rendell, J. C. Burant, S. S. Iyengar, J. Tomasi, 
 M. Cossi, N. Rega, J. M. Millam, M. Klene, J. E. Knox, J. B. Cross, 
 V. Bakken, C. Adamo, J. Jaramillo, R. Gomperts, R. E. Stratmann, 
 O. Yazyev, A. J. Austin, R. Cammi, C. Pomelli, J. W. Ochterski, 
 R. L. Martin, K. Morokuma, V. G. Zakrzewski, G. A. Voth, 
 P. Salvador, J. J. Dannenberg, S. Dapprich, P. V. Parandekar, 
 N. J. Mayhall, A. D. Daniels, O. Farkas, J. B. Foresman, 
 J. V. Ortiz, J. Cioslowski, and D. J. Fox, 
 Gaussian, Inc., Wallingford CT, 2014.
 
 *******************************************
 Gaussian DV:  ES64L-GDVRevI.03+  2-May-2015
                 28-Oct-2015 
 *******************************************
 %chk=benz
 %nproc=2
 Will use up to    2 processors via shared memory.
 ----------------------------------------
 # hf/sto-3g gfinput cis(full,nstates=12)
 ----------------------------------------
 1/38=1,172=1/1;
 2/12=2,17=6,18=5,40=1/2;
 3/6=3,11=9,24=10,25=1,30=1/1,2,3,8;
 4//1;
 5/5=2,38=5/2;
 8/6=1,10=90,108=12/1,4;
 9/41=12,42=3/14;
 6/7=2,8=2,9=2,10=2/1;
 99/5=1,9=1/99;
 ---------------
 Benzene singlet
 ---------------
 Symbolic Z-matrix:
 Charge =  0 Multiplicity = 1
 C                    -0.20699  -0.18218   0.00007 
 C                     1.19167  -0.18235   0.0005 
 C                     1.89106   1.02887  -0.00007 
 C                     1.19173   2.24013  -0.00106 
 C                    -0.20692   2.24031  -0.00148 
 C                    -0.90631   1.02909  -0.00092 
 H                    -0.75075  -1.1239    0.00051 
 H                     1.73529  -1.12415   0.00127 
 H                     2.97848   1.02893   0.00027 
 H                     1.7355    3.18185  -0.0015 
 H                    -0.75054   3.1821   -0.00226 
 H                    -1.99373   1.02902  -0.00125 
 
                          Input orientation:                          
 ---------------------------------------------------------------------
 Center     Atomic      Atomic             Coordinates (Angstroms)
 Number     Number       Type             X           Y           Z
 ---------------------------------------------------------------------
      1          6           0       -0.206985   -0.182180    0.000071
      2          6           0        1.191674   -0.182353    0.000499
      3          6           0        1.891055    1.028868   -0.000066
      4          6           0        1.191735    2.240134   -0.001056
      5          6           0       -0.206924    2.240307   -0.001484
      6          6           0       -0.906306    1.029086   -0.000919
      7          1           0       -0.750746   -1.123896    0.000510
      8          1           0        1.735285   -1.124149    0.001271
      9          1           0        2.978478    1.028934    0.000267
     10          1           0        1.735496    3.181849   -0.001495
     11          1           0       -0.750536    3.182103   -0.002255
     12          1           0       -1.993729    1.029020   -0.001252
 ---------------------------------------------------------------------
                    Distance matrix (angstroms):
                    1          2          3          4          5
     1  C    0.000000
     2  C    1.398659   0.000000
     3  C    2.422480   1.398639   0.000000
     4  C    2.797145   2.422487   1.398648   0.000000
     5  C    2.422487   2.797385   2.422623   1.398659   0.000000
     6  C    1.398648   2.422623   2.797361   2.422480   1.398639
     7  H    1.087430   2.158587   3.407859   3.884576   3.407874
     8  H    2.158639   1.087425   2.158645   3.407910   3.884810
     9  H    3.407928   2.158677   1.087423   2.158578   3.407964
    10  H    3.884576   3.407874   2.158595   1.087430   2.158587
    11  H    3.407910   3.884810   3.407995   2.158639   1.087425
    12  H    2.158578   3.407964   3.884784   3.407928   2.158677
                    6          7          8          9         10
     6  C    0.000000
     7  H    2.158595   0.000000
     8  H    3.407995   2.486032   0.000000
     9  H    3.884784   4.306018   2.486221   0.000000
    10  H    3.407859   4.972006   4.306000   2.485971   0.000000
    11  H    2.158645   4.306000   4.972236   4.306006   2.486032
    12  H    1.087423   2.485971   4.306006   4.972207   4.306018
                   11         12
    11  H    0.000000
    12  H    2.486221   0.000000
 Stoichiometry    C6H6
 Framework group  CI[X(C6H6)]
 Deg. of freedom    15
 Full point group                 CI      NOp   2
 Largest Abelian subgroup         CI      NOp   2
 Largest concise Abelian subgroup CI      NOp   2
                         Standard orientation:                         
 ---------------------------------------------------------------------
 Center     Atomic      Atomic             Coordinates (Angstroms)
 Number     Number       Type             X           Y           Z
 ---------------------------------------------------------------------
      1          6           0       -0.699360   -1.211157    0.000564
      2          6           0        0.699299   -1.211330    0.000991
      3          6           0        1.398680   -0.000109    0.000427
      4          6           0        0.699360    1.211157   -0.000564
      5          6           0       -0.699299    1.211330   -0.000991
      6          6           0       -1.398680    0.000109   -0.000427
      7          1           0       -1.243121   -2.152873    0.001002
      8          1           0        1.242911   -2.153126    0.001763
      9          1           0        2.486104   -0.000043    0.000760
     10          1           0        1.243121    2.152873   -0.001002
     11          1           0       -1.242911    2.153126   -0.001763
     12          1           0       -2.486104    0.000043   -0.000760
 ---------------------------------------------------------------------
 Rotational constants (GHZ):      5.6717105      5.6710222      2.8356832
 Standard basis: STO-3G (5D, 7F)
 AO basis set in the form of general basis input (Overlap normalization):
      1 0
 S   3 1.00       0.000000000000
      0.7161683735D+02  0.1543289673D+00
      0.1304509632D+02  0.5353281423D+00
      0.3530512160D+01  0.4446345422D+00
 SP   3 1.00       0.000000000000
      0.2941249355D+01 -0.9996722919D-01  0.1559162750D+00
      0.6834830964D+00  0.3995128261D+00  0.6076837186D+00
      0.2222899159D+00  0.7001154689D+00  0.3919573931D+00
 ****
      2 0
 S   3 1.00       0.000000000000
      0.7161683735D+02  0.1543289673D+00
      0.1304509632D+02  0.5353281423D+00
      0.3530512160D+01  0.4446345422D+00
 SP   3 1.00       0.000000000000
      0.2941249355D+01 -0.9996722919D-01  0.1559162750D+00
      0.6834830964D+00  0.3995128261D+00  0.6076837186D+00
      0.2222899159D+00  0.7001154689D+00  0.3919573931D+00
 ****
      3 0
 S   3 1.00       0.000000000000
      0.7161683735D+02  0.1543289673D+00
      0.1304509632D+02  0.5353281423D+00
      0.3530512160D+01  0.4446345422D+00
 SP   3 1.00       0.000000000000
      0.2941249355D+01 -0.9996722919D-01  0.1559162750D+00
      0.6834830964D+00  0.3995128261D+00  0.6076837186D+00
      0.2222899159D+00  0.7001154689D+00  0.3919573931D+00
 ****
      4 0
 S   3 1.00       0.000000000000
      0.7161683735D+02  0.1543289673D+00
      0.1304509632D+02  0.5353281423D+00
      0.3530512160D+01  0.4446345422D+00
 SP   3 1.00       0.000000000000
      0.2941249355D+01 -0.9996722919D-01  0.1559162750D+00
      0.6834830964D+00  0.3995128261D+00  0.6076837186D+00
      0.2222899159D+00  0.7001154689D+00  0.3919573931D+00
 ****
      5 0
 S   3 1.00       0.000000000000
      0.7161683735D+02  0.1543289673D+00
      0.1304509632D+02  0.5353281423D+00
      0.3530512160D+01  0.4446345422D+00
 SP   3 1.00       0.000000000000
      0.2941249355D+01 -0.9996722919D-01  0.1559162750D+00
      0.6834830964D+00  0.3995128261D+00  0.6076837186D+00
      0.2222899159D+00  0.7001154689D+00  0.3919573931D+00
 ****
      6 0
 S   3 1.00       0.000000000000
      0.7161683735D+02  0.1543289673D+00
      0.1304509632D+02  0.5353281423D+00
      0.3530512160D+01  0.4446345422D+00
 SP   3 1.00       0.000000000000
      0.2941249355D+01 -0.9996722919D-01  0.1559162750D+00
      0.6834830964D+00  0.3995128261D+00  0.6076837186D+00
      0.2222899159D+00  0.7001154689D+00  0.3919573931D+00
 ****
      7 0
 S   3 1.00       0.000000000000
      0.3425250914D+01  0.1543289673D+00
      0.6239137298D+00  0.5353281423D+00
      0.1688554040D+00  0.4446345422D+00
 ****
      8 0
 S   3 1.00       0.000000000000
      0.3425250914D+01  0.1543289673D+00
      0.6239137298D+00  0.5353281423D+00
      0.1688554040D+00  0.4446345422D+00
 ****
      9 0
 S   3 1.00       0.000000000000
      0.3425250914D+01  0.1543289673D+00
      0.6239137298D+00  0.5353281423D+00
      0.1688554040D+00  0.4446345422D+00
 ****
     10 0
 S   3 1.00       0.000000000000
      0.3425250914D+01  0.1543289673D+00
      0.6239137298D+00  0.5353281423D+00
      0.1688554040D+00  0.4446345422D+00
 ****
     11 0
 S   3 1.00       0.000000000000
      0.3425250914D+01  0.1543289673D+00
      0.6239137298D+00  0.5353281423D+00
      0.1688554040D+00  0.4446345422D+00
 ****
     12 0
 S   3 1.00       0.000000000000
      0.3425250914D+01  0.1543289673D+00
      0.6239137298D+00  0.5353281423D+00
      0.1688554040D+00  0.4446345422D+00
 ****

 There are    18 symmetry adapted cartesian basis functions of AG  symmetry.
 There are    18 symmetry adapted cartesian basis functions of AU  symmetry.
 There are    18 symmetry adapted basis functions of AG  symmetry.
 There are    18 symmetry adapted basis functions of AU  symmetry.
    36 basis functions,   108 primitive gaussians,    36 cartesian basis functions
    21 alpha electrons       21 beta electrons
       nuclear repulsion energy       202.9242874114 Hartrees.
 NAtoms=   12 NActive=   12 NUniq=    6 SFac= 4.00D+00 NAtFMM=   60 NAOKFM=F Big=F
 Integral buffers will be    131072 words long.
 Raffenetti 1 integral format.
 Two-electron integral symmetry is turned on.
 One-electron integrals computed using PRISM.
 NBasis=    36 RedAO= T EigKep=  1.73D-01  NBF=    18    18
 NBsUse=    36 1.00D-06 EigRej= -1.00D+00 NBFU=    18    18
 ExpMin= 1.69D-01 ExpMax= 7.16D+01 ExpMxC= 7.16D+01 IAcc=1 IRadAn=         1 AccDes= 0.00D+00
 Harris functional with IExCor=  205 and IRadAn=       1 diagonalized for initial guess.
 HarFok:  IExCor=  205 AccDes= 0.00D+00 IRadAn=         1 IDoV= 1 UseB2=F ITyADJ=14
 ICtDFT=  3500011 ScaDFX=  1.000000  1.000000  1.000000  1.000000
 FoFCou: FMM=F IPFlag=           0 FMFlag=      100000 FMFlg1=           0
         NFxFlg=           0 DoJE=T BraDBF=F KetDBF=T FulRan=T
         wScrn=  0.000000 ICntrl=       500 IOpCl=  0 I1Cent=   200000004 NGrid=           0
         NMat0=    1 NMatS0=      1 NMatT0=    0 NMatD0=    1 NMtDS0=    0 NMtDT0=    0
 Petite list used in FoFCou.
 Initial guess orbital symmetries:
       Occupied  (AU) (AG) (AG) (AU) (AU) (AG) (AG) (AU) (AU) (AG)
                 (AG) (AG) (AU) (AU) (AU) (AU) (AU) (AG) (AG) (AG)
                 (AG)
       Virtual   (AU) (AU) (AG) (AG) (AU) (AU) (AG) (AG) (AU) (AU)
                 (AU) (AG) (AG) (AG) (AU)
 The electronic state of the initial guess is 1-AG.
 Keep R1 ints in memory in symmetry-blocked form, NReq=1046225.
 Requested convergence on RMS density matrix=1.00D-08 within 128 cycles.
 Requested convergence on MAX density matrix=1.00D-06.
 Requested convergence on             energy=1.00D-06.
 No special actions if energy rises.
 SCF Done:  E(RHF) =  -227.890236622     A.U. after    8 cycles
            NFock=  8  Conv=0.14D-08     -V/T= 2.0087
 Range of M.O.s used for correlation:     1    36
 NBasis=    36 NAE=    21 NBE=    21 NFC=     0 NFV=     0
 NROrb=     36 NOA=    21 NOB=    21 NVA=    15 NVB=    15
 Semi-Direct transformation.
 ModeAB=           4 MOrb=            21 LenV=      33402812
 LASXX=       209580 LTotXX=      209580 LenRXX=      462651
 LTotAB=      253071 MaxLAS=      281232 LenRXY=           0
 NonZer=      672231 LenScr=     1571840 LnRSAI=      281232
 LnScr1=      842752 LExtra=           0 Total=      3158475
 MaxDsk=          -1 SrtSym=           T ITran=            3
 JobTyp=0 Pass  1:  I=   1 to  21.
 (rs|ai) integrals will be sorted in core.
 Spin components of T(2) and E(2):
     alpha-alpha T2 =       0.1760448672D-01 E2=     -0.3599683669D-01
     alpha-beta  T2 =       0.1310491864D+00 E2=     -0.2805701233D+00
     beta-beta   T2 =       0.1760448672D-01 E2=     -0.3599683669D-01
 ANorm=    0.1079934331D+01
 E2 =    -0.3525637966D+00 EUMP2 =    -0.22824280041888D+03
 Orbital symmetries:
       Occupied  (AU) (AU) (AG) (AG) (AG) (AU) (AG) (AU) (AU) (AG)
                 (AG) (AG) (AU) (AU) (AU) (AU) (AU) (AG) (AG) (AG)
                 (AG)
       Virtual   (AU) (AU) (AG) (AG) (AU) (AU) (AU) (AG) (AG) (AG)
                 (AG) (AU) (AU) (AG) (AU)
    48 initial guesses have been made.
 Convergence on wavefunction:    0.001000000000000
 Iteration     1 Dimension    48 NMult     0 NNew     48
 New state      3 was old state      5
 New state      4 was old state      6
 New state      5 was old state      8
 New state      6 was old state      7
 New state      7 was old state      3
 New state      8 was old state      4
 New state      9 was old state     17
 New state     10 was old state     18
 New state     11 was old state     15
 New state     12 was old state      9
 Iteration     2 Dimension    94 NMult    48 NNew     46
 New state      4 was old state      7
 New state      5 was old state      8
 New state      6 was old state      4
 New state      7 was old state      5
 New state      8 was old state      6
 Iteration     3 Dimension   104 NMult    94 NNew     10
 Iteration     4 Dimension   109 NMult   104 NNew      5
 Iteration     5 Dimension   112 NMult   109 NNew      3
 ***********************************************************************
 Excited states from <AA,BB:AA,BB> singles matrix:
 ***********************************************************************
 
 Ground to excited state transition densities written to RWF  633
 Ground to excited state transition electric dipole moments (Au):
       state          X           Y           Z        Dip. S.      Osc.
         1        -0.0002      0.0001      0.0000      0.0000      0.0000
         2         0.0002      0.0000      0.0000      0.0000      0.0000
         3         0.0000      0.0000      0.0000      0.0000      0.0000
         4         2.0096      0.9381      0.0000      4.9185      1.2650
         5        -0.9382      2.0096     -0.0016      4.9188      1.2650
         6         0.0000      0.0000      0.0000      0.0000      0.0000
         7         0.0000      0.0000      0.0000      0.0000      0.0000
         8         0.0000      0.0001      0.1204      0.0145      0.0039
         9         0.0000      0.0000      0.0000      0.0000      0.0000
        10         0.0000      0.0000      0.0000      0.0000      0.0000
        11         0.0000      0.0000      0.0000      0.0000      0.0000
        12         0.0000      0.0000      0.0000      0.0000      0.0000
 Ground to excited state transition velocity dipole moments (Au):
       state          X           Y           Z        Dip. S.      Osc.
         1         0.0000      0.0000      0.0000      0.0000      0.0000
         2         0.0000      0.0000      0.0000      0.0000      0.0000
         3         0.0000      0.0000      0.0002      0.0000      0.0000
         4        -0.1117     -0.0519      0.0000      0.0152      0.0262
         5         0.0517     -0.1117      0.0001      0.0152      0.0262
         6         0.0000      0.0000      0.0000      0.0000      0.0000
         7         0.0000      0.0000      0.0000      0.0000      0.0000
         8         0.0000      0.0000     -0.0530      0.0028      0.0046
         9         0.0000      0.0000      0.0000      0.0000      0.0000
        10         0.0000      0.0000      0.0000      0.0000      0.0000
        11         0.0000      0.0000      0.0000      0.0000      0.0000
        12         0.0000      0.0000      0.0000      0.0000      0.0000
 Ground to excited state transition magnetic dipole moments (Au):
       state          X           Y           Z
         1         0.0000      0.0000      0.0000
         2         0.0000      0.0000      0.0000
         3         0.0000      0.0000      0.0000
         4         0.0000      0.0000      0.0000
         5         0.0000      0.0000      0.0000
         6         0.0000      0.0000      0.0000
         7         0.0000      0.0000      0.0000
         8         0.0000      0.0000      0.0000
         9        -1.9866      1.5977     -0.0016
        10        -1.5977     -1.9866      0.0008
        11        -0.0016      0.0011      0.0000
        12         0.0000      0.0000     -0.0001
 Ground to excited state transition velocity quadrupole moments (Au):
       state          XX          YY          ZZ          XY          XZ          YZ
         1         0.0000      0.0000      0.0000      0.0000      0.0000      0.0000
         2         0.0000      0.0000      0.0000      0.0000      0.0000      0.0000
         3         0.0000      0.0000      0.0000      0.0000      0.0000      0.0000
         4         0.0000      0.0000      0.0000      0.0000      0.0000      0.0000
         5         0.0000      0.0000      0.0000      0.0000      0.0000      0.0000
         6         0.0000      0.0000      0.0000      0.0000      0.0000      0.0000
         7         0.0000      0.0000      0.0000      0.0000      0.0000      0.0000
         8         0.0000      0.0000      0.0000      0.0000      0.0000      0.0000
         9        -0.0001      0.0002     -0.0001      0.0000      0.1090      0.1357
        10         0.0001      0.0001     -0.0002     -0.0001     -0.1357      0.1090
        11         0.0000      0.0000      0.0000      0.0000      0.0000      0.0001
        12        -0.2063      0.2063      0.0000     -0.3847      0.0002     -0.0003
 <0|del|b> * <b|rxdel|0> + <0|del|b> * <b|delr+rdel|0>
 Rotatory Strengths (R) in cgs (10**-40 erg-esu-cm/Gauss)
       state          XX          YY          ZZ    R(velocity)    E-M Angle
         1         0.0000      0.0000      0.0000      0.0000       90.00
         2         0.0000      0.0000      0.0000      0.0000       90.00
         3         0.0000      0.0000      0.0000      0.0000       90.00
         4         0.0000      0.0000      0.0000      0.0000       90.00
         5         0.0000      0.0000      0.0000      0.0000       90.00
         6         0.0000      0.0000      0.0000      0.0000       90.00
         7         0.0000      0.0000      0.0000      0.0000       90.00
         8         0.0000      0.0000      0.0000      0.0000       90.00
         9         0.0000      0.0000      0.0000      0.0000       90.00
        10         0.0000      0.0000      0.0000      0.0000       90.00
        11         0.0000      0.0000      0.0000      0.0000       90.00
        12         0.0000      0.0000      0.0000      0.0000       90.00
 1/2[<0|r|b>*<b|rxdel|0> + (<0|rxdel|b>*<b|r|0>)*]
 Rotatory Strengths (R) in cgs (10**-40 erg-esu-cm/Gauss)
       state          XX          YY          ZZ     R(length)
         1         0.0000      0.0000      0.0000      0.0000
         2         0.0000      0.0000      0.0000      0.0000
         3         0.0000      0.0000      0.0000      0.0000
         4         0.0000      0.0000      0.0000      0.0000
         5         0.0000      0.0000      0.0000      0.0000
         6         0.0000      0.0000      0.0000      0.0000
         7         0.0000      0.0000      0.0000      0.0000
         8         0.0000      0.0000      0.0000      0.0000
         9         0.0000      0.0000      0.0000      0.0000
        10         0.0000      0.0000      0.0000      0.0000
        11         0.0000      0.0000      0.0000      0.0000
        12         0.0000      0.0000      0.0000      0.0000
  1/2[<0|del|b>*<b|r|0> + (<0|r|b>*<b|del|0>)*] (Au)
       state          X           Y           Z        Dip. S.   Osc.(frdel)
         1         0.0000      0.0000      0.0000      0.0000      0.0000
         2         0.0000      0.0000      0.0000      0.0000      0.0000
         3         0.0000      0.0000      0.0000      0.0000      0.0000
         4        -0.2245     -0.0487      0.0000      0.2732      0.1821
         5        -0.0485     -0.2245      0.0000      0.2730      0.1820
         6         0.0000      0.0000      0.0000      0.0000      0.0000
         7         0.0000      0.0000      0.0000      0.0000      0.0000
         8         0.0000      0.0000     -0.0064      0.0064      0.0043
         9         0.0000      0.0000      0.0000      0.0000      0.0000
        10         0.0000      0.0000      0.0000      0.0000      0.0000
        11         0.0000      0.0000      0.0000      0.0000      0.0000
        12         0.0000      0.0000      0.0000      0.0000      0.0000

 Excitation energies and oscillator strengths:
 
 Excited State   1:      Singlet-AU     7.6379 eV  162.33 nm  f=0.0000  <S**2>=0.000
      20 -> 22        -0.25878
      20 -> 23         0.42764
      21 -> 22         0.42773
      21 -> 23         0.25880
 This state for optimization and/or second-order correction.
 Total Energy, E(CIS) =  -227.609548117    
 Copying the excited state density for this state as the 1-particle RhoCI density.
 
 Excited State   2:      Singlet-AU     8.2032 eV  151.14 nm  f=0.0000  <S**2>=0.000
      20 -> 22        -0.41616
      20 -> 23        -0.25181
      21 -> 22        -0.25187
      21 -> 23         0.41622
 
 Excited State   3:      Singlet-AU    10.3122 eV  120.23 nm  f=0.0000  <S**2>=0.000
      10 -> 23         0.10681
      11 -> 22        -0.10686
      14 -> 24         0.19811
      18 -> 22        -0.15479
      18 -> 23         0.44042
      19 -> 22         0.44087
      19 -> 23         0.15482
 
 Excited State   4:      Singlet-AU    10.4974 eV  118.11 nm  f=1.2650  <S**2>=0.000
      20 -> 22         0.28800
      20 -> 23         0.38865
      21 -> 22        -0.38856
      21 -> 23         0.28796
 
 Excited State   5:      Singlet-AU    10.4974 eV  118.11 nm  f=1.2650  <S**2>=0.000
      20 -> 22         0.38863
      20 -> 23        -0.28800
      21 -> 22         0.28795
      21 -> 23         0.38859
 
 Excited State   6:      Singlet-AU    10.8079 eV  114.72 nm  f=0.0000  <S**2>=0.000
      16 -> 24        -0.15045
      18 -> 22         0.41582
      18 -> 23         0.24033
      19 -> 22        -0.24035
      19 -> 23         0.41644
 
 Excited State   7:      Singlet-AU    10.8080 eV  114.72 nm  f=0.0000  <S**2>=0.000
      15 -> 24        -0.15043
      18 -> 22        -0.24045
      18 -> 23         0.41631
      19 -> 22        -0.41596
      19 -> 23        -0.24023
 
 Excited State   8:      Singlet-AU    11.1008 eV  111.69 nm  f=0.0039  <S**2>=0.000
      13 -> 24         0.11486
      18 -> 22         0.46523
      18 -> 23         0.16355
      19 -> 22         0.16317
      19 -> 23        -0.46476
 
 Excited State   9:      Singlet-AG    12.1745 eV  101.84 nm  f=0.0000  <S**2>=0.000
      13 -> 23        -0.10858
      14 -> 22         0.44095
      14 -> 23         0.12665
      15 -> 22         0.23674
      15 -> 23         0.15885
      16 -> 22         0.15918
      16 -> 23        -0.23742
      19 -> 24         0.31916
 
 Excited State  10:      Singlet-AG    12.1747 eV  101.84 nm  f=0.0000  <S**2>=0.000
      13 -> 22         0.10865
      14 -> 22        -0.12667
      14 -> 23         0.44094
      15 -> 22         0.15898
      15 -> 23        -0.23704
      16 -> 22        -0.23709
      16 -> 23        -0.15908
      18 -> 24         0.31915
 
 Excited State  11:      Singlet-AG    12.6467 eV   98.04 nm  f=0.0000  <S**2>=0.000
      12 -> 24        -0.16069
      15 -> 22         0.44048
      15 -> 23         0.20181
      16 -> 22        -0.20171
      16 -> 23         0.44025
 
 Excited State  12:      Singlet-AG    12.8663 eV   96.36 nm  f=0.0000  <S**2>=0.000
      17 -> 22         0.64108
      20 -> 24        -0.18007
      21 -> 24        -0.14137
 SavETr:  write IOETrn=   770 NScale= 10 NData=  16 NLR=1 NState=   12 LETran=     226.

 **********************************************************************

            Population analysis using the SCF density.

 **********************************************************************

 Orbital symmetries:
       Occupied  (AU) (AU) (AG) (AG) (AG) (AU) (AG) (AU) (AU) (AG)
                 (AG) (AG) (AU) (AU) (AU) (AU) (AU) (AG) (AG) (AG)
                 (AG)
       Virtual   (AU) (AU) (AG) (AG) (AU) (AU) (AU) (AG) (AG) (AG)
                 (AG) (AU) (AU) (AG) (AU)
 The electronic state is 1-AG.
 Alpha  occ. eigenvalues --  -11.02907 -11.02907 -11.02904 -11.02874 -11.02873
 Alpha  occ. eigenvalues --  -11.02860  -1.08713  -0.95280  -0.95278  -0.76540
 Alpha  occ. eigenvalues --   -0.76538  -0.65977  -0.59392  -0.55123  -0.53267
 Alpha  occ. eigenvalues --   -0.53263  -0.45385  -0.43209  -0.43207  -0.27849
 Alpha  occ. eigenvalues --   -0.27847
 Alpha virt. eigenvalues --    0.26782   0.26783   0.50116   0.57730   0.64673
 Alpha virt. eigenvalues --    0.64675   0.71511   0.72925   0.72926   0.88059
 Alpha virt. eigenvalues --    0.88064   0.89202   0.89208   1.08095   1.14345
          Condensed to atoms (all electrons):
               1          2          3          4          5          6
     1  C    4.775076   0.505962  -0.029816  -0.011088  -0.029815   0.505966
     2  C    0.505962   4.775059   0.505964  -0.029815  -0.011079  -0.029803
     3  C   -0.029816   0.505964   4.775059   0.505966  -0.029803  -0.011079
     4  C   -0.011088  -0.029815   0.505966   4.775076   0.505962  -0.029816
     5  C   -0.029815  -0.011079  -0.029803   0.505962   4.775059   0.505964
     6  C    0.505966  -0.029803  -0.011079  -0.029816   0.505964   4.775059
     7  H    0.393482  -0.025287   0.001341   0.000028   0.001341  -0.025285
     8  H   -0.025281   0.393484  -0.025281   0.001341   0.000028   0.001340
     9  H    0.001341  -0.025279   0.393485  -0.025286   0.001340   0.000028
    10  H    0.000028   0.001341  -0.025285   0.393482  -0.025287   0.001341
    11  H    0.001341   0.000028   0.001340  -0.025281   0.393484  -0.025281
    12  H   -0.025286   0.001340   0.000028   0.001341  -0.025279   0.393485
               7          8          9         10         11         12
     1  C    0.393482  -0.025281   0.001341   0.000028   0.001341  -0.025286
     2  C   -0.025287   0.393484  -0.025279   0.001341   0.000028   0.001340
     3  C    0.001341  -0.025281   0.393485  -0.025285   0.001340   0.000028
     4  C    0.000028   0.001341  -0.025286   0.393482  -0.025281   0.001341
     5  C    0.001341   0.000028   0.001340  -0.025287   0.393484  -0.025279
     6  C   -0.025285   0.001340   0.000028   0.001341  -0.025281   0.393485
     7  H    0.599562  -0.003513  -0.000031   0.000002  -0.000031  -0.003514
     8  H   -0.003513   0.599533  -0.003511  -0.000031   0.000002  -0.000031
     9  H   -0.000031  -0.003511   0.599536  -0.003514  -0.000031   0.000002
    10  H    0.000002  -0.000031  -0.003514   0.599562  -0.003513  -0.000031
    11  H   -0.000031   0.000002  -0.000031  -0.003513   0.599533  -0.003511
    12  H   -0.003514  -0.000031   0.000002  -0.000031  -0.003511   0.599536
 Mulliken charges:
               1
     1  C   -0.061910
     2  C   -0.061916
     3  C   -0.061918
     4  C   -0.061910
     5  C   -0.061916
     6  C   -0.061918
     7  H    0.061905
     8  H    0.061920
     9  H    0.061919
    10  H    0.061905
    11  H    0.061920
    12  H    0.061919
 Sum of Mulliken charges =   0.00000
 Mulliken charges with hydrogens summed into heavy atoms:
               1
     1  C   -0.000005
     2  C    0.000004
     3  C    0.000001
     4  C   -0.000005
     5  C    0.000004
     6  C    0.000001
 Electronic spatial extent (au):  <R**2>=            456.3830
 Charge=              0.0000 electrons
 Dipole moment (field-independent basis, Debye):
    X=              0.0000    Y=              0.0000    Z=              0.0000  Tot=              0.0000
 Quadrupole moment (field-independent basis, Debye-Ang):
   XX=            -31.1758   YY=            -31.1761   ZZ=            -35.1196
   XY=             -0.0003   XZ=              0.0012   YZ=             -0.0025
 Traceless Quadrupole moment (field-independent basis, Debye-Ang):
   XX=              1.3147   YY=              1.3144   ZZ=             -2.6291
   XY=             -0.0003   XZ=              0.0012   YZ=             -0.0025
 Octapole moment (field-independent basis, Debye-Ang**2):
  XXX=              0.0000  YYY=              0.0000  ZZZ=              0.0000  XYY=              0.0000
  XXY=              0.0000  XXZ=              0.0000  XZZ=              0.0000  YZZ=              0.0000
  YYZ=              0.0000  XYZ=              0.0000
 Hexadecapole moment (field-independent basis, Debye-Ang**3):
 XXXX=           -261.4266 YYYY=           -261.4169 ZZZZ=            -28.5351 XXXY=              0.0071
 XXXZ=             -0.0303 YYYX=              0.0016 YYYZ=              0.0638 ZZZX=             -0.0407
 ZZZY=              0.0857 XXYY=            -87.1419 XXZZ=            -54.0033 YYZZ=            -54.0011
 XXYZ=              0.0213 YYXZ=             -0.0101 ZZXY=              0.0019
 N-N= 2.029242874114D+02 E-N=-9.366684525251D+02  KE= 2.259232589844D+02
 Symmetry AG   KE= 1.142581943377D+02
 Symmetry AU   KE= 1.116650646468D+02
 Unable to Open any file for archive entry.
 1\1\GINC-MEDUSA\SP\RCIS-Full\STO-3G\C6H6\PLESTRAN\28-Oct-2015\0\\# hf/
 sto-3g gfinput cis(full,nstates=12)\\Benzene singlet\\0,1\C,0,-0.20698
 51582,-0.182179772,0.0000714421\C,0,1.1916738876,-0.1823529436,0.00049
 85861\C,0,1.8910553573,1.0288676731,-0.0000660445\C,0,1.1917349868,2.2
 401336715,-0.0010564977\C,0,-0.206924055,2.2403068493,-0.0014838269\C,
 0,-0.9063055337,1.0290862369,-0.0009191682\H,0,-0.750746176,-1.1238955
 859,0.0005098114\H,0,1.7352854346,-1.124149144,0.0012705069\H,0,2.9784
 784245,1.0289339946,0.0002669247\H,0,1.7354959994,3.1818494841,-0.0014
 954845\H,0,-0.7505356043,3.1821030485,-0.0022553738\H,0,-1.9937286031,
 1.0290199075,-0.0012518757\\Version=ES64L-GDVRevI.03+\State=1-AG\HF=-2
 27.8902366\MP2=-228.2428004\EFC=0.\RMSD=1.414e-09\PG=CI [X(C6H6)]\\@
 The archive entry for this job was punched.


 BULLDOZER: SOMEONE WHO SLEEPS THROUGH SPEECHES.
 Job cpu time:       0 days  0 hours  0 minutes  1.9 seconds.
 Elapsed time:       0 days  0 hours  0 minutes  0.8 seconds.
 File lengths (MBytes):  RWF=     31 Int=      0 D2E=      0 Chk=      8 Scr=      1
 Normal termination of Gaussian DV at Wed Oct 28 10:03:45 2015.
 Initial command:
 /home/gauss/gdvi03p/gdv/l1.exe "/home/GauScr/Gau-4554.inp" -scrdir="/home/GauScr/"
 Entering Link 1 = /home/gauss/gdvi03p/gdv/l1.exe PID=      4570.
  
 Copyright (c) 1988,1990,1992,1993,1995,1998,2003,2009,2015,
            Gaussian, Inc.  All Rights Reserved.
  
 This is the private, development version of
 the Gaussian(R) DV system of programs. It is based on
 the Gaussian(R) 09 system (copyright 2009, Gaussian, Inc.),
 the Gaussian(R) 03 system (copyright 2003, Gaussian, Inc.),
 the Gaussian(R) 98 system (copyright 1998, Gaussian, Inc.),
 the Gaussian(R) 94 system (copyright 1995, Gaussian, Inc.),
 the Gaussian 92(TM) system (copyright 1992, Gaussian, Inc.),
 the Gaussian 90(TM) system (copyright 1990, Gaussian, Inc.),
 the Gaussian 88(TM) system (copyright 1988, Gaussian, Inc.),
 the Gaussian 86(TM) system (copyright 1986, Carnegie Mellon
 University), and the Gaussian 82(TM) system (copyright 1983,
 Carnegie Mellon University). Gaussian is a federally registered
 trademark of Gaussian, Inc.
  
 This software contains proprietary and confidential information,
 including trade secrets, belonging to Gaussian, Inc.
  
 This software is provided under written license and may be
 used, copied, transmitted, or stored only in accord with that
 written license.
  
 The following legend is applicable only to US Government
 contracts under FAR:
  
                    RESTRICTED RIGHTS LEGEND
  
 Use, reproduction and disclosure by the US Government is
 subject to restrictions as set forth in subparagraphs (a)
 and (c) of the Commercial Computer Software - Restricted
 Rights clause in FAR 52.227-19.
  
 Gaussian, Inc.
 340 Quinnipiac St., Bldg. 40, Wallingford CT 06492
  
  
 ---------------------------------------------------------------
 Warning -- This program may not be used in any manner that
 competes with the business of Gaussian, Inc. or will provide
 assistance to any competitor of Gaussian, Inc.  The licensee
 of this program is prohibited from giving any competitor of
 Gaussian, Inc. access to this program.  By using this program,
 the user acknowledges that Gaussian, Inc. is engaged in the
 business of creating and licensing software in the field of
 computational chemistry and represents and warrants to the
 licensee that it is not a competitor of Gaussian, Inc. and that
 it will not use this program in any manner prohibited above.
 ---------------------------------------------------------------
  

 Cite this work as:
 Gaussian Development Version, Revision I.03+,
 M. J. Frisch, G. W. Trucks, H. B. Schlegel, G. E. Scuseria, 
 M. A. Robb, J. R. Cheeseman, G. Scalmani, V. Barone, B. Mennucci, 
 G. A. Petersson, H. Nakatsuji, M. Caricato, X. Li, H. P. Hratchian, 
 J. Bloino, B. G. Janesko, A. F. Izmaylov, A. Marenich, F. Lipparini, 
 G. Zheng, J. L. Sonnenberg, W. Liang, M. Hada, M. Ehara, K. Toyota, 
 R. Fukuda, J. Hasegawa, M. Ishida, T. Nakajima, Y. Honda, O. Kitao, 
 H. Nakai, T. Vreven, K. Throssell, J. A. Montgomery, Jr., 
 J. E. Peralta, F. Ogliaro, M. Bearpark, J. J. Heyd, E. Brothers, 
 K. N. Kudin, V. N. Staroverov, T. Keith, R. Kobayashi, J. Normand, 
 K. Raghavachari, A. Rendell, J. C. Burant, S. S. Iyengar, J. Tomasi, 
 M. Cossi, N. Rega, J. M. Millam, M. Klene, J. E. Knox, J. B. Cross, 
 V. Bakken, C. Adamo, J. Jaramillo, R. Gomperts, R. E. Stratmann, 
 O. Yazyev, A. J. Austin, R. Cammi, C. Pomelli, J. W. Ochterski, 
 R. L. Martin, K. Morokuma, V. G. Zakrzewski, G. A. Voth, 
 P. Salvador, J. J. Dannenberg, S. Dapprich, P. V. Parandekar, 
 N. J. Mayhall, A. D. Daniels, O. Farkas, J. B. Foresman, 
 J. V. Ortiz, J. Cioslowski, and D. J. Fox, 
 Gaussian, Inc., Wallingford CT, 2014.
 
 *******************************************
 Gaussian DV:  ES64L-GDVRevI.03+  2-May-2015
                 28-Oct-2015 
 *******************************************
 %chk=benz
 %nproc=2
 Will use up to    2 processors via shared memory.
 --------------------------------------------------------------
 # hf/sto-3g geom=check guess=read cis(full,nstates=12,triplet)
 --------------------------------------------------------------
 1/29=2,38=1,172=1/1;
 2/12=2,40=1/2;
 3/6=3,11=9,14=-4,25=1,30=1,116=-2/1,2,3,8;
 4/5=1/1;
 5/5=2,38=6/2;
 8/6=1,10=90,108=12/1,4;
 9/41=12,42=3,48=3/14;
 6/7=2,8=2,9=2,10=2/1;
 99/5=1,9=1/99;
 ---------------
 Benzene triplet
 ---------------
 Structure from the checkpoint file:  "benz.chk"
 Charge =  0 Multiplicity = 1
 Z-Matrix found in chk file.
 C,0,-0.2069851582,-0.182179772,0.0000714421
 C,0,1.1916738876,-0.1823529436,0.0004985861
 C,0,1.8910553573,1.0288676731,-0.0000660445
 C,0,1.1917349868,2.2401336715,-0.0010564977
 C,0,-0.206924055,2.2403068493,-0.0014838269
 C,0,-0.9063055337,1.0290862369,-0.0009191682
 H,0,-0.750746176,-1.1238955859,0.0005098114
 H,0,1.7352854346,-1.124149144,0.0012705069
 H,0,2.9784784245,1.0289339946,0.0002669247
 H,0,1.7354959994,3.1818494841,-0.0014954845
 H,0,-0.7505356043,3.1821030485,-0.0022553738
 H,0,-1.9937286031,1.0290199075,-0.0012518757
 Recover connectivity data from disk.
                          Input orientation:                          
 ---------------------------------------------------------------------
 Center     Atomic      Atomic             Coordinates (Angstroms)
 Number     Number       Type             X           Y           Z
 ---------------------------------------------------------------------
      1          6           0       -0.206985   -0.182180    0.000071
      2          6           0        1.191674   -0.182353    0.000499
      3          6           0        1.891055    1.028868   -0.000066
      4          6           0        1.191735    2.240134   -0.001057
      5          6           0       -0.206924    2.240307   -0.001484
      6          6           0       -0.906306    1.029086   -0.000919
      7          1           0       -0.750746   -1.123896    0.000510
      8          1           0        1.735285   -1.124149    0.001271
      9          1           0        2.978478    1.028934    0.000267
     10          1           0        1.735496    3.181849   -0.001495
     11          1           0       -0.750536    3.182103   -0.002256
     12          1           0       -1.993729    1.029020   -0.001252
 ---------------------------------------------------------------------
                    Distance matrix (angstroms):
                    1          2          3          4          5
     1  C    0.000000
     2  C    1.398659   0.000000
     3  C    2.422480   1.398639   0.000000
     4  C    2.797145   2.422487   1.398648   0.000000
     5  C    2.422487   2.797385   2.422623   1.398659   0.000000
     6  C    1.398648   2.422623   2.797361   2.422480   1.398639
     7  H    1.087430   2.158587   3.407859   3.884576   3.407874
     8  H    2.158639   1.087425   2.158645   3.407910   3.884810
     9  H    3.407928   2.158677   1.087423   2.158578   3.407964
    10  H    3.884576   3.407874   2.158595   1.087430   2.158587
    11  H    3.407910   3.884810   3.407995   2.158639   1.087425
    12  H    2.158578   3.407964   3.884784   3.407928   2.158677
                    6          7          8          9         10
     6  C    0.000000
     7  H    2.158595   0.000000
     8  H    3.407995   2.486032   0.000000
     9  H    3.884784   4.306018   2.486221   0.000000
    10  H    3.407859   4.972006   4.306000   2.485971   0.000000
    11  H    2.158645   4.306000   4.972236   4.306006   2.486032
    12  H    1.087423   2.485971   4.306006   4.972207   4.306018
                   11         12
    11  H    0.000000
    12  H    2.486221   0.000000
 Stoichiometry    C6H6
 Framework group  CI[X(C6H6)]
 Deg. of freedom    15
 Full point group                 CI      NOp   2
 Largest Abelian subgroup         CI      NOp   2
 Largest concise Abelian subgroup CI      NOp   2
                         Standard orientation:                         
 ---------------------------------------------------------------------
 Center     Atomic      Atomic             Coordinates (Angstroms)
 Number     Number       Type             X           Y           Z
 ---------------------------------------------------------------------
      1          6           0       -0.699360   -1.211157    0.000564
      2          6           0        0.699299   -1.211330    0.000991
      3          6           0        1.398680   -0.000109    0.000427
      4          6           0        0.699360    1.211157   -0.000564
      5          6           0       -0.699299    1.211330   -0.000991
      6          6           0       -1.398680    0.000109   -0.000427
      7          1           0       -1.243121   -2.152873    0.001002
      8          1           0        1.242911   -2.153126    0.001763
      9          1           0        2.486104   -0.000043    0.000760
     10          1           0        1.243121    2.152873   -0.001002
     11          1           0       -1.242911    2.153126   -0.001763
     12          1           0       -2.486104    0.000043   -0.000760
 ---------------------------------------------------------------------
 Rotational constants (GHZ):      5.6717105      5.6710222      2.8356832
 Standard basis: STO-3G (5D, 7F)
 There are    18 symmetry adapted cartesian basis functions of AG  symmetry.
 There are    18 symmetry adapted cartesian basis functions of AU  symmetry.
 There are    18 symmetry adapted basis functions of AG  symmetry.
 There are    18 symmetry adapted basis functions of AU  symmetry.
    36 basis functions,   108 primitive gaussians,    36 cartesian basis functions
    21 alpha electrons       21 beta electrons
       nuclear repulsion energy       202.9242874114 Hartrees.
 NAtoms=   12 NActive=   12 NUniq=    6 SFac= 4.00D+00 NAtFMM=   60 NAOKFM=F Big=F
 Integral buffers will be    131072 words long.
 Raffenetti 1 integral format.
 Two-electron integral symmetry is turned on.
 One-electron integrals computed using PRISM.
 NBasis=    36 RedAO= T EigKep=  1.73D-01  NBF=    18    18
 NBsUse=    36 1.00D-06 EigRej= -1.00D+00 NBFU=    18    18
 Initial guess from the checkpoint file:  "benz.chk"
 B after Tr=     0.000000    0.000000    0.000000
         Rot=    1.000000    0.000000    0.000000    0.000000 Ang=   0.00 deg.
 Initial guess orbital symmetries:
       Occupied  (AU) (AU) (AG) (AG) (AG) (AU) (AG) (AU) (AU) (AG)
                 (AG) (AG) (AU) (AU) (AU) (AU) (AU) (AG) (AG) (AG)
                 (AG)
       Virtual   (AU) (AU) (AG) (AG) (AU) (AU) (AU) (AG) (AG) (AG)
                 (AG) (AU) (AU) (AG) (AU)
 Keep R1 ints in memory in symmetry-blocked form, NReq=1046225.
 Requested convergence on RMS density matrix=1.00D-08 within 128 cycles.
 Requested convergence on MAX density matrix=1.00D-06.
 Requested convergence on             energy=1.00D-06.
 No special actions if energy rises.
 SCF Done:  E(RHF) =  -227.890236622     A.U. after    1 cycles
            NFock=  1  Conv=0.25D-09     -V/T= 2.0087
 Range of M.O.s used for correlation:     1    36
 NBasis=    36 NAE=    21 NBE=    21 NFC=     0 NFV=     0
 NROrb=     36 NOA=    21 NOB=    21 NVA=    15 NVB=    15
 Semi-Direct transformation.
 ModeAB=           4 MOrb=            21 LenV=      33402812
 LASXX=       209580 LTotXX=      209580 LenRXX=      462651
 LTotAB=      253071 MaxLAS=      281232 LenRXY=           0
 NonZer=      672231 LenScr=     1571840 LnRSAI=      281232
 LnScr1=      842752 LExtra=           0 Total=      3158475
 MaxDsk=          -1 SrtSym=           T ITran=            3
 JobTyp=0 Pass  1:  I=   1 to  21.
 (rs|ai) integrals will be sorted in core.
 Spin components of T(2) and E(2):
     alpha-alpha T2 =       0.1760448673D-01 E2=     -0.3599683671D-01
     alpha-beta  T2 =       0.1310491865D+00 E2=     -0.2805701234D+00
     beta-beta   T2 =       0.1760448673D-01 E2=     -0.3599683671D-01
 ANorm=    0.1079934331D+01
 E2 =    -0.3525637968D+00 EUMP2 =    -0.22824280041909D+03
 Orbital symmetries:
       Occupied  (AU) (AU) (AG) (AG) (AG) (AU) (AG) (AU) (AU) (AG)
                 (AG) (AG) (AU) (AU) (AU) (AU) (AU) (AG) (AG) (AG)
                 (AG)
       Virtual   (AU) (AU) (AG) (AG) (AU) (AU) (AU) (AG) (AG) (AG)
                 (AG) (AU) (AU) (AG) (AU)
    48 initial guesses have been made.
 Convergence on wavefunction:    0.001000000000000
 Iteration     1 Dimension    48 NMult     0 NNew     48
 New state      1 was old state      2
 New state      2 was old state      3
 New state      3 was old state      1
 New state      5 was old state      9
 New state      6 was old state     10
 New state      7 was old state      5
 New state      8 was old state      6
 New state      9 was old state      8
 New state     10 was old state      7
 New state     11 was old state     17
 New state     12 was old state     18
 Iteration     2 Dimension    94 NMult    48 NNew     46
 Iteration     3 Dimension   104 NMult    94 NNew     10
 Iteration     4 Dimension   109 NMult   104 NNew      5
 ***********************************************************************
 Excited states from <AA,BB:AA,BB> singles matrix:
 ***********************************************************************
 
 Ground to excited state transition densities written to RWF  633
 Ground to excited state transition electric dipole moments (Au):
       state          X           Y           Z        Dip. S.      Osc.
         1         0.0000      0.0000      0.0000      0.0000      0.0000
         2         0.0000      0.0000      0.0000      0.0000      0.0000
         3         0.0000      0.0000      0.0000      0.0000      0.0000
         4         0.0000      0.0000      0.0000      0.0000      0.0000
         5         0.0000      0.0000      0.0000      0.0000      0.0000
         6         0.0000      0.0000      0.0000      0.0000      0.0000
         7         0.0000      0.0000      0.0000      0.0000      0.0000
         8         0.0000      0.0000      0.0000      0.0000      0.0000
         9         0.0000      0.0000      0.0000      0.0000      0.0000
        10         0.0000      0.0000      0.0000      0.0000      0.0000
        11         0.0000      0.0000      0.0000      0.0000      0.0000
        12         0.0000      0.0000      0.0000      0.0000      0.0000
 Ground to excited state transition velocity dipole moments (Au):
       state          X           Y           Z        Dip. S.      Osc.
         1         0.0000      0.0000      0.0000      0.0000      0.0000
         2         0.0000      0.0000      0.0000      0.0000      0.0000
         3         0.0000      0.0000      0.0000      0.0000      0.0000
         4         0.0000      0.0000      0.0000      0.0000      0.0000
         5         0.0000      0.0000      0.0000      0.0000      0.0000
         6         0.0000      0.0000      0.0000      0.0000      0.0000
         7         0.0000      0.0000      0.0000      0.0000      0.0000
         8         0.0000      0.0000      0.0000      0.0000      0.0000
         9         0.0000      0.0000      0.0000      0.0000      0.0000
        10         0.0000      0.0000      0.0000      0.0000      0.0000
        11         0.0000      0.0000      0.0000      0.0000      0.0000
        12         0.0000      0.0000      0.0000      0.0000      0.0000
 Ground to excited state transition magnetic dipole moments (Au):
       state          X           Y           Z
         1         0.0000      0.0000      0.0000
         2         0.0000      0.0000      0.0000
         3         0.0000      0.0000      0.0000
         4         0.0000      0.0000      0.0000
         5         0.0000      0.0000      0.0000
         6         0.0000      0.0000      0.0000
         7         0.0000      0.0000      0.0000
         8         0.0000      0.0000      0.0000
         9         0.0000      0.0000      0.0000
        10         0.0000      0.0000      0.0000
        11         0.0000      0.0000      0.0000
        12         0.0000      0.0000      0.0000
 Ground to excited state transition velocity quadrupole moments (Au):
       state          XX          YY          ZZ          XY          XZ          YZ
         1         0.0000      0.0000      0.0000      0.0000      0.0000      0.0000
         2         0.0000      0.0000      0.0000      0.0000      0.0000      0.0000
         3         0.0000      0.0000      0.0000      0.0000      0.0000      0.0000
         4         0.0000      0.0000      0.0000      0.0000      0.0000      0.0000
         5         0.0000      0.0000      0.0000      0.0000      0.0000      0.0000
         6         0.0000      0.0000      0.0000      0.0000      0.0000      0.0000
         7         0.0000      0.0000      0.0000      0.0000      0.0000      0.0000
         8         0.0000      0.0000      0.0000      0.0000      0.0000      0.0000
         9         0.0000      0.0000      0.0000      0.0000      0.0000      0.0000
        10         0.0000      0.0000      0.0000      0.0000      0.0000      0.0000
        11         0.0000      0.0000      0.0000      0.0000      0.0000      0.0000
        12         0.0000      0.0000      0.0000      0.0000      0.0000      0.0000
 <0|del|b> * <b|rxdel|0> + <0|del|b> * <b|delr+rdel|0>
 Rotatory Strengths (R) in cgs (10**-40 erg-esu-cm/Gauss)
       state          XX          YY          ZZ    R(velocity)    E-M Angle
         1         0.0000      0.0000      0.0000      0.0000       90.00
         2         0.0000      0.0000      0.0000      0.0000       90.00
         3         0.0000      0.0000      0.0000      0.0000       90.00
         4         0.0000      0.0000      0.0000      0.0000       90.00
         5         0.0000      0.0000      0.0000      0.0000       90.00
         6         0.0000      0.0000      0.0000      0.0000       90.00
         7         0.0000      0.0000      0.0000      0.0000       90.00
         8         0.0000      0.0000      0.0000      0.0000       90.00
         9         0.0000      0.0000      0.0000      0.0000       90.00
        10         0.0000      0.0000      0.0000      0.0000       90.00
        11         0.0000      0.0000      0.0000      0.0000       90.00
        12         0.0000      0.0000      0.0000      0.0000       90.00
 1/2[<0|r|b>*<b|rxdel|0> + (<0|rxdel|b>*<b|r|0>)*]
 Rotatory Strengths (R) in cgs (10**-40 erg-esu-cm/Gauss)
       state          XX          YY          ZZ     R(length)
         1         0.0000      0.0000      0.0000      0.0000
         2         0.0000      0.0000      0.0000      0.0000
         3         0.0000      0.0000      0.0000      0.0000
         4         0.0000      0.0000      0.0000      0.0000
         5         0.0000      0.0000      0.0000      0.0000
         6         0.0000      0.0000      0.0000      0.0000
         7         0.0000      0.0000      0.0000      0.0000
         8         0.0000      0.0000      0.0000      0.0000
         9         0.0000      0.0000      0.0000      0.0000
        10         0.0000      0.0000      0.0000      0.0000
        11         0.0000      0.0000      0.0000      0.0000
        12         0.0000      0.0000      0.0000      0.0000
  1/2[<0|del|b>*<b|r|0> + (<0|r|b>*<b|del|0>)*] (Au)
       state          X           Y           Z        Dip. S.   Osc.(frdel)
         1         0.0000      0.0000      0.0000      0.0000      0.0000
         2         0.0000      0.0000      0.0000      0.0000      0.0000
         3         0.0000      0.0000      0.0000      0.0000      0.0000
         4         0.0000      0.0000      0.0000      0.0000      0.0000
         5         0.0000      0.0000      0.0000      0.0000      0.0000
         6         0.0000      0.0000      0.0000      0.0000      0.0000
         7         0.0000      0.0000      0.0000      0.0000      0.0000
         8         0.0000      0.0000      0.0000      0.0000      0.0000
         9         0.0000      0.0000      0.0000      0.0000      0.0000
        10         0.0000      0.0000      0.0000      0.0000      0.0000
        11         0.0000      0.0000      0.0000      0.0000      0.0000
        12         0.0000      0.0000      0.0000      0.0000      0.0000

 Excitation energies and oscillator strengths:
 
 Excited State   1:      Triplet-AU     3.2247 eV  384.48 nm  f=0.0000  <S**2>=2.000
      17 -> 24         0.20103
      20 -> 22        -0.40823
      20 -> 23        -0.24701
      21 -> 22        -0.24707
      21 -> 23         0.40828
 This state for optimization and/or second-order correction.
 Total Energy, E(CIS) =  -227.771730742    
 Copying the excited state density for this state as the 1-particle RhoCI density.
 
 Excited State   2:      Triplet-AU     5.9704 eV  207.66 nm  f=0.0000  <S**2>=2.000
      20 -> 22         0.44421
      20 -> 23        -0.22787
      21 -> 22         0.22797
      21 -> 23         0.44425
 
 Excited State   3:      Triplet-AU     5.9704 eV  207.66 nm  f=0.0000  <S**2>=2.000
      20 -> 22        -0.22799
      20 -> 23        -0.44420
      21 -> 22         0.44427
      21 -> 23        -0.22785
 
 Excited State   4:      Triplet-AU     7.4617 eV  166.16 nm  f=0.0000  <S**2>=2.000
      20 -> 22        -0.25885
      20 -> 23         0.42783
      21 -> 22         0.42766
      21 -> 23         0.25881
 
 Excited State   5:      Triplet-AG     8.4727 eV  146.33 nm  f=0.0000  <S**2>=2.000
      17 -> 22         0.51501
      17 -> 23        -0.20339
      20 -> 24        -0.26262
      21 -> 24        -0.34513
 
 Excited State   6:      Triplet-AG     8.4728 eV  146.33 nm  f=0.0000  <S**2>=2.000
      17 -> 22         0.20341
      17 -> 23         0.51501
      20 -> 24        -0.34512
      21 -> 24         0.26264
 
 Excited State   7:      Triplet-AU     9.8895 eV  125.37 nm  f=0.0000  <S**2>=2.000
      10 -> 23         0.11410
      11 -> 22        -0.11415
      14 -> 24         0.21396
      18 -> 22        -0.15281
      18 -> 23         0.43473
      19 -> 22         0.43520
      19 -> 23         0.15285
 
 Excited State   8:      Triplet-AU    10.3549 eV  119.73 nm  f=0.0000  <S**2>=2.000
      12 -> 23         0.10024
      16 -> 24        -0.16585
      18 -> 22         0.40913
      18 -> 23         0.24092
      19 -> 22        -0.24090
      19 -> 23         0.40970
 
 Excited State   9:      Triplet-AU    10.3550 eV  119.73 nm  f=0.0000  <S**2>=2.000
      12 -> 22         0.10024
      15 -> 24        -0.16582
      18 -> 22        -0.24101
      18 -> 23         0.40960
      19 -> 22        -0.40924
      19 -> 23        -0.24081
 
 Excited State  10:      Triplet-AU    10.6826 eV  116.06 nm  f=0.0000  <S**2>=2.000
      13 -> 24         0.12513
      18 -> 22         0.46410
      18 -> 23         0.16317
      19 -> 22         0.16283
      19 -> 23        -0.46368
 
 Excited State  11:      Triplet-AG    11.5647 eV  107.21 nm  f=0.0000  <S**2>=2.000
      13 -> 23        -0.11796
      14 -> 22         0.42998
      14 -> 23         0.13080
      15 -> 22         0.23640
      15 -> 23         0.15335
      16 -> 22         0.15367
      16 -> 23        -0.23708
      19 -> 24         0.33069
 
 Excited State  12:      Triplet-AG    11.5650 eV  107.21 nm  f=0.0000  <S**2>=2.000
      13 -> 22         0.11803
      14 -> 22        -0.13082
      14 -> 23         0.42997
      15 -> 22         0.15348
      15 -> 23        -0.23671
      16 -> 22        -0.23675
      16 -> 23        -0.15357
      18 -> 24         0.33067
 SavETr:  write IOETrn=   770 NScale= 10 NData=  16 NLR=1 NState=   12 LETran=     226.

 **********************************************************************

            Population analysis using the SCF density.

 **********************************************************************

 Orbital symmetries:
       Occupied  (AU) (AU) (AG) (AG) (AG) (AU) (AG) (AU) (AU) (AG)
                 (AG) (AG) (AU) (AU) (AU) (AU) (AU) (AG) (AG) (AG)
                 (AG)
       Virtual   (AU) (AU) (AG) (AG) (AU) (AU) (AU) (AG) (AG) (AG)
                 (AG) (AU) (AU) (AG) (AU)
 The electronic state is 1-AG.
 Alpha  occ. eigenvalues --  -11.02907 -11.02907 -11.02904 -11.02874 -11.02873
 Alpha  occ. eigenvalues --  -11.02860  -1.08713  -0.95280  -0.95278  -0.76540
 Alpha  occ. eigenvalues --   -0.76538  -0.65977  -0.59392  -0.55123  -0.53267
 Alpha  occ. eigenvalues --   -0.53263  -0.45385  -0.43209  -0.43207  -0.27849
 Alpha  occ. eigenvalues --   -0.27847
 Alpha virt. eigenvalues --    0.26782   0.26783   0.50116   0.57730   0.64673
 Alpha virt. eigenvalues --    0.64675   0.71511   0.72925   0.72926   0.88059
 Alpha virt. eigenvalues --    0.88064   0.89202   0.89208   1.08095   1.14345
          Condensed to atoms (all electrons):
               1          2          3          4          5          6
     1  C    4.775076   0.505962  -0.029816  -0.011088  -0.029815   0.505966
     2  C    0.505962   4.775059   0.505964  -0.029815  -0.011079  -0.029803
     3  C   -0.029816   0.505964   4.775059   0.505966  -0.029803  -0.011079
     4  C   -0.011088  -0.029815   0.505966   4.775076   0.505962  -0.029816
     5  C   -0.029815  -0.011079  -0.029803   0.505962   4.775059   0.505964
     6  C    0.505966  -0.029803  -0.011079  -0.029816   0.505964   4.775059
     7  H    0.393482  -0.025287   0.001341   0.000028   0.001341  -0.025285
     8  H   -0.025281   0.393484  -0.025281   0.001341   0.000028   0.001340
     9  H    0.001341  -0.025279   0.393485  -0.025286   0.001340   0.000028
    10  H    0.000028   0.001341  -0.025285   0.393482  -0.025287   0.001341
    11  H    0.001341   0.000028   0.001340  -0.025281   0.393484  -0.025281
    12  H   -0.025286   0.001340   0.000028   0.001341  -0.025279   0.393485
               7          8          9         10         11         12
     1  C    0.393482  -0.025281   0.001341   0.000028   0.001341  -0.025286
     2  C   -0.025287   0.393484  -0.025279   0.001341   0.000028   0.001340
     3  C    0.001341  -0.025281   0.393485  -0.025285   0.001340   0.000028
     4  C    0.000028   0.001341  -0.025286   0.393482  -0.025281   0.001341
     5  C    0.001341   0.000028   0.001340  -0.025287   0.393484  -0.025279
     6  C   -0.025285   0.001340   0.000028   0.001341  -0.025281   0.393485
     7  H    0.599562  -0.003513  -0.000031   0.000002  -0.000031  -0.003514
     8  H   -0.003513   0.599533  -0.003511  -0.000031   0.000002  -0.000031
     9  H   -0.000031  -0.003511   0.599536  -0.003514  -0.000031   0.000002
    10  H    0.000002  -0.000031  -0.003514   0.599562  -0.003513  -0.000031
    11  H   -0.000031   0.000002  -0.000031  -0.003513   0.599533  -0.003511
    12  H   -0.003514  -0.000031   0.000002  -0.000031  -0.003511   0.599536
 Mulliken charges:
               1
     1  C   -0.061910
     2  C   -0.061916
     3  C   -0.061918
     4  C   -0.061910
     5  C   -0.061916
     6  C   -0.061918
     7  H    0.061905
     8  H    0.061920
     9  H    0.061919
    10  H    0.061905
    11  H    0.061920
    12  H    0.061919
 Sum of Mulliken charges =   0.00000
 Mulliken charges with hydrogens summed into heavy atoms:
               1
     1  C   -0.000005
     2  C    0.000004
     3  C    0.000001
     4  C   -0.000005
     5  C    0.000004
     6  C    0.000001
 Electronic spatial extent (au):  <R**2>=            456.3830
 Charge=              0.0000 electrons
 Dipole moment (field-independent basis, Debye):
    X=              0.0000    Y=              0.0000    Z=              0.0000  Tot=              0.0000
 Quadrupole moment (field-independent basis, Debye-Ang):
   XX=            -31.1758   YY=            -31.1761   ZZ=            -35.1196
   XY=             -0.0003   XZ=              0.0012   YZ=             -0.0025
 Traceless Quadrupole moment (field-independent basis, Debye-Ang):
   XX=              1.3147   YY=              1.3144   ZZ=             -2.6291
   XY=             -0.0003   XZ=              0.0012   YZ=             -0.0025
 Octapole moment (field-independent basis, Debye-Ang**2):
  XXX=              0.0000  YYY=              0.0000  ZZZ=              0.0000  XYY=              0.0000
  XXY=              0.0000  XXZ=              0.0000  XZZ=              0.0000  YZZ=              0.0000
  YYZ=              0.0000  XYZ=              0.0000
 Hexadecapole moment (field-independent basis, Debye-Ang**3):
 XXXX=           -261.4266 YYYY=           -261.4169 ZZZZ=            -28.5351 XXXY=              0.0071
 XXXZ=             -0.0303 YYYX=              0.0016 YYYZ=              0.0638 ZZZX=             -0.0407
 ZZZY=              0.0857 XXYY=            -87.1419 XXZZ=            -54.0033 YYZZ=            -54.0011
 XXYZ=              0.0213 YYXZ=             -0.0101 ZZXY=              0.0019
 N-N= 2.029242874114D+02 E-N=-9.366684525265D+02  KE= 2.259232589841D+02
 Symmetry AG   KE= 1.142581943370D+02
 Symmetry AU   KE= 1.116650646471D+02
 Unable to Open any file for archive entry.
 1\1\GINC-MEDUSA\SP\RCIS-Full\STO-3G\C6H6\PLESTRAN\28-Oct-2015\0\\# hf/
 sto-3g geom=check guess=read cis(full,nstates=12,triplet)\\Benzene tri
 plet\\0,1\C,0,-0.2069851582,-0.182179772,0.0000714421\C,0,1.1916738876
 ,-0.1823529436,0.0004985861\C,0,1.8910553573,1.0288676731,-0.000066044
 5\C,0,1.1917349868,2.2401336715,-0.0010564977\C,0,-0.206924055,2.24030
 68493,-0.0014838269\C,0,-0.9063055337,1.0290862369,-0.0009191682\H,0,-
 0.750746176,-1.1238955859,0.0005098114\H,0,1.7352854346,-1.124149144,0
 .0012705069\H,0,2.9784784245,1.0289339946,0.0002669247\H,0,1.735495999
 4,3.1818494841,-0.0014954845\H,0,-0.7505356043,3.1821030485,-0.0022553
 738\H,0,-1.9937286031,1.0290199075,-0.0012518757\\Version=ES64L-GDVRev
 I.03+\State=1-AG\HF=-227.8902366\MP2=-228.2428004\EFC=0.\RMSD=2.515e-1
 0\PG=CI [X(C6H6)]\\@
 The archive entry for this job was punched.


 HIGGLEDY-PIGGLEDY
 NIC'LAUS COPERNICUS
 LOOKED AT THE UNIVERSE,
 SPOKE TO THE THRONG;
 GIVE UP YOUR PTOLOMY,
 RISE UP AND FOLLOW ME,
 HELIOCENTRICALLY
 PTOLEMY'S WRONG.
   -- NANCY L. STARK
 Job cpu time:       0 days  0 hours  0 minutes  1.7 seconds.
 Elapsed time:       0 days  0 hours  0 minutes  0.7 seconds.
 File lengths (MBytes):  RWF=     31 Int=      0 D2E=      0 Chk=      8 Scr=      1
 Normal termination of Gaussian DV at Wed Oct 28 10:03:46 2015.
