 Entering Gaussian System, Link 0=gdv
 Input=benzene_6-31G_field.com
 Output=benzene_6-31G_field.log
 Initial command:
 /home/gauss/gdvi01p/gdv/l1.exe "/home/GauScr/Gau-32662.inp" -scrdir="/home/GauScr/"
 Entering Link 1 = /home/gauss/gdvi01p/gdv/l1.exe PID=     32663.
  
 Copyright (c) 1988,1990,1992,1993,1995,1998,2003,2009,2014,
            Gaussian, Inc.  All Rights Reserved.
  
 This is the private, development version of
 the Gaussian(R) DV system of programs. It is based on
 the Gaussian(R) 09 system (copyright 2009, Gaussian, Inc.),
 the Gaussian(R) 03 system (copyright 2003, Gaussian, Inc.),
 the Gaussian(R) 98 system (copyright 1998, Gaussian, Inc.),
 the Gaussian(R) 94 system (copyright 1995, Gaussian, Inc.),
 the Gaussian 92(TM) system (copyright 1992, Gaussian, Inc.),
 the Gaussian 90(TM) system (copyright 1990, Gaussian, Inc.),
 the Gaussian 88(TM) system (copyright 1988, Gaussian, Inc.),
 the Gaussian 86(TM) system (copyright 1986, Carnegie Mellon
 University), and the Gaussian 82(TM) system (copyright 1983,
 Carnegie Mellon University). Gaussian is a federally registered
 trademark of Gaussian, Inc.
  
 This software contains proprietary and confidential information,
 including trade secrets, belonging to Gaussian, Inc.
  
 This software is provided under written license and may be
 used, copied, transmitted, or stored only in accord with that
 written license.
  
 The following legend is applicable only to US Government
 contracts under FAR:
  
                    RESTRICTED RIGHTS LEGEND
  
 Use, reproduction and disclosure by the US Government is
 subject to restrictions as set forth in subparagraphs (a)
 and (c) of the Commercial Computer Software - Restricted
 Rights clause in FAR 52.227-19.
  
 Gaussian, Inc.
 340 Quinnipiac St., Bldg. 40, Wallingford CT 06492
  
  
 ---------------------------------------------------------------
 Warning -- This program may not be used in any manner that
 competes with the business of Gaussian, Inc. or will provide
 assistance to any competitor of Gaussian, Inc.  The licensee
 of this program is prohibited from giving any competitor of
 Gaussian, Inc. access to this program.  By using this program,
 the user acknowledges that Gaussian, Inc. is engaged in the
 business of creating and licensing software in the field of
 computational chemistry and represents and warrants to the
 licensee that it is not a competitor of Gaussian, Inc. and that
 it will not use this program in any manner prohibited above.
 ---------------------------------------------------------------
  

 Cite this work as:
 Gaussian Development Version, Revision I.01+,
 M. J. Frisch, G. W. Trucks, H. B. Schlegel, G. E. Scuseria, 
 M. A. Robb, J. R. Cheeseman, G. Scalmani, V. Barone, B. Mennucci, 
 G. A. Petersson, H. Nakatsuji, M. Caricato, X. Li, H. P. Hratchian, 
 A. F. Izmaylov, J. Bloino, B. G. Janesko, F. Lipparini, G. Zheng, 
 J. L. Sonnenberg, W. Liang, M. Hada, M. Ehara, K. Toyota, R. Fukuda, 
 J. Hasegawa, M. Ishida, T. Nakajima, Y. Honda, O. Kitao, H. Nakai, 
 T. Vreven, J. A. Montgomery, Jr., J. E. Peralta, F. Ogliaro, 
 M. Bearpark, J. J. Heyd, E. Brothers, K. N. Kudin, V. N. Staroverov, 
 T. Keith, R. Kobayashi, J. Normand, K. Raghavachari, A. Rendell, 
 J. C. Burant, S. S. Iyengar, J. Tomasi, M. Cossi, N. Rega, 
 J. M. Millam, M. Klene, J. E. Knox, J. B. Cross, V. Bakken, 
 C. Adamo, J. Jaramillo, R. Gomperts, R. E. Stratmann, O. Yazyev, 
 A. J. Austin, R. Cammi, C. Pomelli, J. W. Ochterski, R. L. Martin, 
 K. Morokuma, V. G. Zakrzewski, G. A. Voth, P. Salvador, 
 J. J. Dannenberg, S. Dapprich, P. V. Parandekar, N. J. Mayhall, 
 A. D. Daniels, O. Farkas, J. B. Foresman, J. V. Ortiz, 
 J. Cioslowski, and D. J. Fox, Gaussian, Inc., Wallingford CT, 2010.
 
 *******************************************
 Gaussian DV:  ES64L-GDVRevI.01+ 11-Sep-2014
                 29-Sep-2015 
 *******************************************
 ----------------------------------------------
 # hf/6-31G gfinput pop=full nosymm Field=X-100
 ----------------------------------------------
 1/38=1,172=1/1;
 2/12=2,15=1,17=6,18=5,40=1/2;
 3/5=1,6=6,11=9,14=1,15=-100,24=10,25=1,30=1/1,2,3;
 4//1;
 5/5=2,38=5/2;
 6/7=3,28=1/1;
 99/5=1,9=1/99;
 -------------
 Benzene 6-31G
 -------------
 Symbolic Z-matrix:
 Charge =  0 Multiplicity = 1
 C                    -0.64864   0.24131  -0.00045 
 C                     0.74652   0.24131  -0.00045 
 C                     1.44406   1.44906  -0.00045 
 C                     0.74641   2.65757  -0.00165 
 C                    -0.64842   2.65749  -0.00213 
 C                    -1.34602   1.44928  -0.00113 
 H                    -1.19839  -0.71101   0. 
 H                     1.29603  -0.71121   0.00087 
 H                     2.54374   1.44914   0.00018 
 H                     1.29661   3.60971  -0.00171 
 H                    -1.19854   3.60977  -0.00308 
 H                    -2.44562   1.44947  -0.00131 
 
                          Input orientation:                          
 ---------------------------------------------------------------------
 Center     Atomic      Atomic             Coordinates (Angstroms)
 Number     Number       Type             X           Y           Z
 ---------------------------------------------------------------------
      1          6           0       -0.648635    0.241308   -0.000450
      2          6           0        0.746525    0.241308   -0.000450
      3          6           0        1.444063    1.449059   -0.000450
      4          6           0        0.746409    2.657568   -0.001649
      5          6           0       -0.648416    2.657490   -0.002128
      6          6           0       -1.346017    1.449284   -0.001132
      7          1           0       -1.198394   -0.711009    0.000000
      8          1           0        1.296033   -0.711205    0.000865
      9          1           0        2.543743    1.449139    0.000184
     10          1           0        1.296609    3.609711   -0.001708
     11          1           0       -1.198538    3.609771   -0.003081
     12          1           0       -2.445621    1.449467   -0.001312
 ---------------------------------------------------------------------
                    Distance matrix (angstroms):
                    1          2          3          4          5
     1  C    0.000000
     2  C    1.395160   0.000000
     3  C    2.416205   1.394712   0.000000
     4  C    2.790065   2.416260   1.395427   0.000000
     5  C    2.416183   2.789946   2.416356   1.394825   0.000000
     6  C    1.394829   2.416183   2.790080   2.416236   1.395138
     7  H    1.099610   2.165553   3.412986   3.889675   3.413102
     8  H    2.165414   1.099655   2.165330   3.413316   3.889601
     9  H    3.413229   2.165375   1.099680   2.165806   3.413209
    10  H    3.889745   3.413024   2.165678   1.099680   2.165606
    11  H    3.413055   3.889707   3.413506   2.165528   1.099761
    12  H    2.165365   3.413128   3.889684   3.412999   2.165471
                    6          7          8          9         10
     6  C    0.000000
     7  H    2.165331   0.000000
     8  H    3.412938   2.494427   0.000000
     9  H    3.889760   4.320860   2.494768   0.000000
    10  H    3.413344   4.989355   4.320917   2.494678   0.000000
    11  H    2.165516   4.320781   4.989362   4.321228   2.495147
    12  H    1.099604   2.494641   4.320704   4.989364   4.320988
                   11         12
    11  H    0.000000
    12  H    2.494420   0.000000
 Symmetry turned off by external request.
 Stoichiometry    C6H6
 Framework group  C1[X(C6H6)]
 Deg. of freedom    30
 Full point group                 C1      NOp   1
 Rotational constants (GHZ):      5.6865650      5.6862640      2.8432074
 Standard basis: 6-31G (6D, 7F)
 The following finite field(s) will be applied:
 An electric field of             -0.0100  0.0000  0.0000
 AO basis set in the form of general basis input (Overlap normalization):
      1 0
 S   6 1.00       0.000000000000
      0.3047524880D+04  0.1834737132D-02
      0.4573695180D+03  0.1403732281D-01
      0.1039486850D+03  0.6884262226D-01
      0.2921015530D+02  0.2321844432D+00
      0.9286662960D+01  0.4679413484D+00
      0.3163926960D+01  0.3623119853D+00
 SP   3 1.00       0.000000000000
      0.7868272350D+01 -0.1193324198D+00  0.6899906659D-01
      0.1881288540D+01 -0.1608541517D+00  0.3164239610D+00
      0.5442492580D+00  0.1143456438D+01  0.7443082909D+00
 SP   1 1.00       0.000000000000
      0.1687144782D+00  0.1000000000D+01  0.1000000000D+01
 ****
      2 0
 S   6 1.00       0.000000000000
      0.3047524880D+04  0.1834737132D-02
      0.4573695180D+03  0.1403732281D-01
      0.1039486850D+03  0.6884262226D-01
      0.2921015530D+02  0.2321844432D+00
      0.9286662960D+01  0.4679413484D+00
      0.3163926960D+01  0.3623119853D+00
 SP   3 1.00       0.000000000000
      0.7868272350D+01 -0.1193324198D+00  0.6899906659D-01
      0.1881288540D+01 -0.1608541517D+00  0.3164239610D+00
      0.5442492580D+00  0.1143456438D+01  0.7443082909D+00
 SP   1 1.00       0.000000000000
      0.1687144782D+00  0.1000000000D+01  0.1000000000D+01
 ****
      3 0
 S   6 1.00       0.000000000000
      0.3047524880D+04  0.1834737132D-02
      0.4573695180D+03  0.1403732281D-01
      0.1039486850D+03  0.6884262226D-01
      0.2921015530D+02  0.2321844432D+00
      0.9286662960D+01  0.4679413484D+00
      0.3163926960D+01  0.3623119853D+00
 SP   3 1.00       0.000000000000
      0.7868272350D+01 -0.1193324198D+00  0.6899906659D-01
      0.1881288540D+01 -0.1608541517D+00  0.3164239610D+00
      0.5442492580D+00  0.1143456438D+01  0.7443082909D+00
 SP   1 1.00       0.000000000000
      0.1687144782D+00  0.1000000000D+01  0.1000000000D+01
 ****
      4 0
 S   6 1.00       0.000000000000
      0.3047524880D+04  0.1834737132D-02
      0.4573695180D+03  0.1403732281D-01
      0.1039486850D+03  0.6884262226D-01
      0.2921015530D+02  0.2321844432D+00
      0.9286662960D+01  0.4679413484D+00
      0.3163926960D+01  0.3623119853D+00
 SP   3 1.00       0.000000000000
      0.7868272350D+01 -0.1193324198D+00  0.6899906659D-01
      0.1881288540D+01 -0.1608541517D+00  0.3164239610D+00
      0.5442492580D+00  0.1143456438D+01  0.7443082909D+00
 SP   1 1.00       0.000000000000
      0.1687144782D+00  0.1000000000D+01  0.1000000000D+01
 ****
      5 0
 S   6 1.00       0.000000000000
      0.3047524880D+04  0.1834737132D-02
      0.4573695180D+03  0.1403732281D-01
      0.1039486850D+03  0.6884262226D-01
      0.2921015530D+02  0.2321844432D+00
      0.9286662960D+01  0.4679413484D+00
      0.3163926960D+01  0.3623119853D+00
 SP   3 1.00       0.000000000000
      0.7868272350D+01 -0.1193324198D+00  0.6899906659D-01
      0.1881288540D+01 -0.1608541517D+00  0.3164239610D+00
      0.5442492580D+00  0.1143456438D+01  0.7443082909D+00
 SP   1 1.00       0.000000000000
      0.1687144782D+00  0.1000000000D+01  0.1000000000D+01
 ****
      6 0
 S   6 1.00       0.000000000000
      0.3047524880D+04  0.1834737132D-02
      0.4573695180D+03  0.1403732281D-01
      0.1039486850D+03  0.6884262226D-01
      0.2921015530D+02  0.2321844432D+00
      0.9286662960D+01  0.4679413484D+00
      0.3163926960D+01  0.3623119853D+00
 SP   3 1.00       0.000000000000
      0.7868272350D+01 -0.1193324198D+00  0.6899906659D-01
      0.1881288540D+01 -0.1608541517D+00  0.3164239610D+00
      0.5442492580D+00  0.1143456438D+01  0.7443082909D+00
 SP   1 1.00       0.000000000000
      0.1687144782D+00  0.1000000000D+01  0.1000000000D+01
 ****
      7 0
 S   3 1.00       0.000000000000
      0.1873113696D+02  0.3349460434D-01
      0.2825394365D+01  0.2347269535D+00
      0.6401216923D+00  0.8137573261D+00
 S   1 1.00       0.000000000000
      0.1612777588D+00  0.1000000000D+01
 ****
      8 0
 S   3 1.00       0.000000000000
      0.1873113696D+02  0.3349460434D-01
      0.2825394365D+01  0.2347269535D+00
      0.6401216923D+00  0.8137573261D+00
 S   1 1.00       0.000000000000
      0.1612777588D+00  0.1000000000D+01
 ****
      9 0
 S   3 1.00       0.000000000000
      0.1873113696D+02  0.3349460434D-01
      0.2825394365D+01  0.2347269535D+00
      0.6401216923D+00  0.8137573261D+00
 S   1 1.00       0.000000000000
      0.1612777588D+00  0.1000000000D+01
 ****
     10 0
 S   3 1.00       0.000000000000
      0.1873113696D+02  0.3349460434D-01
      0.2825394365D+01  0.2347269535D+00
      0.6401216923D+00  0.8137573261D+00
 S   1 1.00       0.000000000000
      0.1612777588D+00  0.1000000000D+01
 ****
     11 0
 S   3 1.00       0.000000000000
      0.1873113696D+02  0.3349460434D-01
      0.2825394365D+01  0.2347269535D+00
      0.6401216923D+00  0.8137573261D+00
 S   1 1.00       0.000000000000
      0.1612777588D+00  0.1000000000D+01
 ****
     12 0
 S   3 1.00       0.000000000000
      0.1873113696D+02  0.3349460434D-01
      0.2825394365D+01  0.2347269535D+00
      0.6401216923D+00  0.8137573261D+00
 S   1 1.00       0.000000000000
      0.1612777588D+00  0.1000000000D+01
 ****

    66 basis functions,   156 primitive gaussians,    66 cartesian basis functions
    21 alpha electrons       21 beta electrons
       nuclear repulsion energy       203.0307491037 Hartrees.
 NAtoms=   12 NActive=   12 NUniq=   12 SFac= 1.00D+00 NAtFMM=   60 NAOKFM=F Big=F
 Integral buffers will be    131072 words long.
 Raffenetti 1 integral format.
 Two-electron integral symmetry is turned off.
 One-electron integrals computed using PRISM.
 NBasis=    66 RedAO= T EigKep=  7.01D-04  NBF=    66
 NBsUse=    66 1.00D-06 EigRej= -1.00D+00 NBFU=    66
 The nuclear repulsion energy is now       202.9918701540 hartrees.
 ExpMin= 1.61D-01 ExpMax= 3.05D+03 ExpMxC= 4.57D+02 IAcc=1 IRadAn=         1 AccDes= 0.00D+00
 Harris functional with IExCor=  205 and IRadAn=       1 diagonalized for initial guess.
 HarFok:  IExCor=  205 AccDes= 0.00D+00 IRadAn=         1 IDoV= 1 UseB2=F ITyADJ=14
 ICtDFT=  3500011 ScaDFX=  1.000000  1.000000  1.000000  1.000000
 FoFCou: FMM=F IPFlag=           0 FMFlag=      100000 FMFlg1=           0
         NFxFlg=           0 DoJE=T BraDBF=F KetDBF=T FulRan=T
         wScrn=  0.000000 ICntrl=       500 IOpCl=  0 I1Cent=   200000004 NGrid=           0
         NMat0=    1 NMatS0=      1 NMatT0=    0 NMatD0=    1 NMtDS0=    0 NMtDT0=    0
 Symmetry not used in FoFCou.
 Keep R1 ints in memory in canonical form, NReq=3289487.
 Requested convergence on RMS density matrix=1.00D-08 within 128 cycles.
 Requested convergence on MAX density matrix=1.00D-06.
 Requested convergence on             energy=1.00D-06.
 No special actions if energy rises.
 SCF Done:  E(RHF) =  -230.624804229     A.U. after   12 cycles
            NFock= 12  Conv=0.35D-08     -V/T= 2.0003

 **********************************************************************

            Population analysis using the SCF density.

 **********************************************************************

 Alpha  occ. eigenvalues --  -11.24858 -11.24400 -11.24384 -11.23515 -11.23499
 Alpha  occ. eigenvalues --  -11.23050  -1.15150  -1.01261  -1.01242  -0.81817
 Alpha  occ. eigenvalues --   -0.81795  -0.70466  -0.63103  -0.61632  -0.58216
 Alpha  occ. eigenvalues --   -0.58146  -0.49964  -0.48363  -0.48299  -0.33341
 Alpha  occ. eigenvalues --   -0.33261
 Alpha virt. eigenvalues --    0.14589   0.14662   0.21944   0.28068   0.28665
 Alpha virt. eigenvalues --    0.31283   0.33444   0.35643   0.36253   0.46704
 Alpha virt. eigenvalues --    0.46841   0.49912   0.49951   0.68197   0.75333
 Alpha virt. eigenvalues --    0.77067   0.77277   0.78232   0.83905   0.84415
 Alpha virt. eigenvalues --    0.84513   0.87294   0.87300   0.89932   0.90122
 Alpha virt. eigenvalues --    0.91518   0.91662   0.99280   1.11264   1.12057
 Alpha virt. eigenvalues --    1.13885   1.15601   1.15782   1.23335   1.26369
 Alpha virt. eigenvalues --    1.27194   1.28177   1.36158   1.36261   1.43638
 Alpha virt. eigenvalues --    1.43647   1.47625   1.71927   1.71938   2.15921
     Molecular Orbital Coefficients:
                           1         2         3         4         5
                           O         O         O         O         O
     Eigenvalues --   -11.24858 -11.24400 -11.24384 -11.23515 -11.23499
   1 1   C  1S          0.12320  -0.68624   0.70861  -0.03472  -0.05457
   2        2S          0.00205  -0.01727   0.01816  -0.00173  -0.00213
   3        2PX         0.00008  -0.00001   0.00010  -0.00019  -0.00018
   4        2PY        -0.00019  -0.00030   0.00019  -0.00009  -0.00004
   5        2PZ         0.00000   0.00000   0.00000   0.00000   0.00000
   6        3S          0.00633   0.01154  -0.01920   0.00851   0.00708
   7        3PX         0.00016   0.00092  -0.00258   0.00300   0.00270
   8        3PY         0.00392   0.00182  -0.00543   0.00324   0.00158
   9        3PZ         0.00000   0.00000   0.00000   0.00000   0.00000
  10 2   C  1S          0.00477  -0.04517   0.04580   0.53695   0.82678
  11        2S          0.00006  -0.00061   0.00015   0.01357   0.02092
  12        2PX         0.00015  -0.00011   0.00014  -0.00025  -0.00023
  13        2PY         0.00000  -0.00002  -0.00007   0.00009   0.00038
  14        2PZ         0.00000   0.00000   0.00000   0.00000   0.00000
  15        3S         -0.00254  -0.00328   0.00887  -0.01399  -0.01565
  16        3PX         0.00056   0.00176  -0.00354   0.00260   0.00200
  17        3PY        -0.00140  -0.00055   0.00355  -0.00377  -0.00294
  18        3PZ         0.00000   0.00000   0.00000   0.00000   0.00000
  19 3   C  1S         -0.00044   0.00010   0.00369   0.17513   0.03734
  20        2S         -0.00029   0.00000   0.00021   0.00292   0.00064
  21        2PX         0.00008   0.00000   0.00008   0.00012   0.00002
  22        2PY         0.00000  -0.00018   0.00000  -0.00004   0.00020
  23        2PZ         0.00000   0.00000   0.00000   0.00000   0.00000
  24        3S          0.00258  -0.00013  -0.00564   0.00994   0.00200
  25        3PX        -0.00168   0.00008   0.00327  -0.00554  -0.00112
  26        3PY         0.00000   0.00011   0.00000   0.00051  -0.00250
  27        3PZ         0.00000   0.00000   0.00000   0.00000   0.00000
  28 4   C  1S          0.00480   0.04768   0.04396   0.81806  -0.55060
  29        2S          0.00006   0.00062   0.00013   0.02068  -0.01394
  30        2PX         0.00015   0.00012   0.00013  -0.00032   0.00011
  31        2PY         0.00000  -0.00002   0.00008  -0.00023   0.00032
  32        2PZ         0.00000   0.00000   0.00000   0.00000   0.00000
  33        3S         -0.00254   0.00369   0.00869  -0.01901   0.00896
  34        3PX         0.00056  -0.00193  -0.00346   0.00318  -0.00082
  35        3PY         0.00140  -0.00071  -0.00351   0.00462  -0.00125
  36        3PZ         0.00000   0.00000   0.00000   0.00000   0.00000
  37 5   C  1S          0.12319   0.71909   0.67520  -0.05377   0.03690
  38        2S          0.00205   0.01811   0.01732  -0.00244   0.00129
  39        2PX         0.00008   0.00002   0.00010  -0.00024   0.00009
  40        2PY         0.00019  -0.00031  -0.00017   0.00010   0.00000
  41        2PZ         0.00000   0.00000   0.00000   0.00000   0.00000
  42        3S          0.00633  -0.01243  -0.01863   0.01062  -0.00320
  43        3PX         0.00016  -0.00104  -0.00254   0.00383  -0.00131
  44        3PY        -0.00392   0.00207   0.00534  -0.00360   0.00019
  45        3PZ         0.00000   0.00000  -0.00001   0.00000   0.00000
  46 6   C  1S          0.98072  -0.00415  -0.17488   0.00458   0.00091
  47        2S          0.02457  -0.00014  -0.00595   0.00030   0.00006
  48        2PX         0.00020  -0.00001  -0.00028  -0.00008  -0.00002
  49        2PY         0.00000  -0.00025   0.00001  -0.00003   0.00015
  50        2PZ         0.00000   0.00000   0.00000   0.00000   0.00000
  51        3S         -0.01878   0.00040   0.01686  -0.00605  -0.00122
  52        3PX        -0.00421   0.00017   0.00702  -0.00318  -0.00064
  53        3PY         0.00000   0.00267  -0.00007  -0.00005   0.00023
  54        3PZ         0.00000   0.00000   0.00000   0.00000   0.00000
  55 7   H  1S         -0.00006   0.00023  -0.00029   0.00007  -0.00003
  56        2S          0.00098  -0.00106   0.00047   0.00091   0.00036
  57 8   H  1S         -0.00004   0.00007   0.00004  -0.00023  -0.00027
  58        2S         -0.00018  -0.00028   0.00115   0.00032   0.00102
  59 9   H  1S          0.00006   0.00000  -0.00008  -0.00005  -0.00001
  60        2S          0.00048  -0.00001  -0.00054   0.00149   0.00031
  61 10  H  1S         -0.00004  -0.00007   0.00005  -0.00032   0.00016
  62        2S         -0.00018   0.00033   0.00113   0.00069  -0.00081
  63 11  H  1S         -0.00006  -0.00025  -0.00028   0.00006   0.00005
  64        2S          0.00098   0.00108   0.00042   0.00098   0.00003
  65 12  H  1S         -0.00038   0.00000   0.00006  -0.00004  -0.00001
  66        2S          0.00141   0.00002   0.00101  -0.00045  -0.00009
                           6         7         8         9        10
                           O         O         O         O         O
     Eigenvalues --   -11.23050  -1.15150  -1.01261  -1.01242  -0.81817
   1 1   C  1S          0.00578  -0.09541   0.10803   0.06950   0.06771
   2        2S          0.00043   0.18788  -0.21717  -0.13972  -0.13862
   3        2PX        -0.00010   0.02851  -0.07095   0.07832  -0.11759
   4        2PY         0.00002   0.05770   0.00858  -0.06301   0.11297
   5        2PZ         0.00000  -0.00003  -0.00001   0.00005  -0.00006
   6        3S         -0.00607   0.11315  -0.16434  -0.10850  -0.12332
   7        3PX        -0.00188   0.00244   0.00005   0.00923  -0.01315
   8        3PY        -0.00266   0.00711   0.00478  -0.00189   0.04521
   9        3PZ         0.00000   0.00000   0.00000   0.00000  -0.00002
  10 2   C  1S         -0.12810  -0.08937   0.11530  -0.05918   0.03023
  11        2S         -0.00437   0.17620  -0.23220   0.11921  -0.06140
  12        2PX         0.00000  -0.03505   0.06095   0.07770   0.16345
  13        2PY        -0.00026   0.05305  -0.00475   0.06789   0.11713
  14        2PZ         0.00000   0.00000  -0.00004   0.00002  -0.00003
  15        3S          0.01318   0.10453  -0.17687   0.08778  -0.05724
  16        3PX        -0.00131  -0.00536   0.00457   0.00496   0.02912
  17        3PY         0.00587   0.00674   0.00371   0.00225   0.03223
  18        3PZ         0.00000   0.00001  -0.00002   0.00001  -0.00002
  19 3   C  1S          0.97999  -0.08645   0.01285  -0.12931  -0.10141
  20        2S          0.02515   0.17057  -0.02591   0.26068   0.20802
  21        2PX        -0.00061  -0.06300   0.00433  -0.04335   0.04634
  22        2PY         0.00000  -0.00009   0.10968   0.01068  -0.03360
  23        2PZ         0.00000  -0.00004  -0.00006  -0.00005   0.00002
  24        3S         -0.02393   0.10020  -0.01949   0.19646   0.18843
  25        3PX         0.00714  -0.00897   0.00006  -0.00108   0.03936
  26        3PY         0.00001   0.00001   0.00671   0.00068  -0.00651
  27        3PZ         0.00001  -0.00001   0.00000  -0.00001   0.00003
  28 4   C  1S         -0.12586  -0.08932  -0.10154  -0.08054   0.05942
  29        2S         -0.00431   0.17610   0.20448   0.16220  -0.12129
  30        2PX         0.00000  -0.03513  -0.07517   0.06407   0.12938
  31        2PY         0.00026  -0.05298   0.00871  -0.06736  -0.11385
  32        2PZ         0.00000   0.00003  -0.00002   0.00008   0.00012
  33        3S          0.01312   0.10450   0.15632   0.12067  -0.11085
  34        3PX        -0.00132  -0.00536  -0.00541   0.00391   0.01774
  35        3PY        -0.00585  -0.00677   0.00410  -0.00155  -0.03995
  36        3PZ         0.00000   0.00001   0.00000   0.00001   0.00002
  37 5   C  1S          0.00569  -0.09539  -0.11963   0.04686   0.04100
  38        2S          0.00043   0.18784   0.24047  -0.09420  -0.08416
  39        2PX        -0.00010   0.02855   0.05440   0.09065  -0.15839
  40        2PY        -0.00002  -0.05767  -0.00390   0.06342  -0.11608
  41        2PZ         0.00000   0.00007   0.00004  -0.00003   0.00005
  42        3S         -0.00606   0.11311   0.18252  -0.07405  -0.07450
  43        3PX        -0.00188   0.00242  -0.00186   0.00900  -0.02739
  44        3PY         0.00265  -0.00710   0.00433   0.00285  -0.03796
  45        3PZ         0.00000   0.00001   0.00000   0.00000   0.00003
  46 6   C  1S          0.00018  -0.09857  -0.01255   0.12704  -0.09713
  47        2S         -0.00034   0.19400   0.02521  -0.25515   0.19803
  48        2PX        -0.00006   0.06451   0.00273  -0.02750  -0.06754
  49        2PY         0.00000  -0.00004   0.12172   0.01216   0.03439
  50        2PZ         0.00000  -0.00001  -0.00008   0.00002  -0.00005
  51        3S          0.00470   0.11753   0.01931  -0.19543   0.17679
  52        3PX         0.00291   0.00672  -0.00066   0.00694  -0.05097
  53        3PY         0.00000   0.00000   0.00934   0.00093   0.00802
  54        3PZ         0.00000   0.00000  -0.00001   0.00001  -0.00002
  55 7   H  1S         -0.00005   0.03658  -0.06419  -0.04221  -0.07677
  56        2S         -0.00054   0.00554  -0.01488  -0.00981  -0.02880
  57 8   H  1S          0.00006   0.03255  -0.06491   0.03258  -0.03391
  58        2S          0.00088   0.00387  -0.01181   0.00589  -0.01100
  59 9   H  1S         -0.00035   0.03069  -0.00697   0.07025   0.10310
  60        2S          0.00063   0.00322  -0.00109   0.01124   0.02804
  61 10  H  1S          0.00006   0.03253   0.05729   0.04464  -0.06449
  62        2S          0.00088   0.00388   0.01041   0.00812  -0.02021
  63 11  H  1S         -0.00005   0.03656   0.07121  -0.02874  -0.04541
  64        2S         -0.00054   0.00553   0.01650  -0.00671  -0.01672
  65 12  H  1S          0.00009   0.03878   0.00777  -0.07860   0.11779
  66        2S          0.00069   0.00660   0.00203  -0.02048   0.04995
                          11        12        13        14        15
                           O         O         O         O         O
     Eigenvalues --    -0.81795  -0.70466  -0.63103  -0.61632  -0.58216
   1 1   C  1S          0.07315   0.00730  -0.05328  -0.00302  -0.01864
   2        2S         -0.14908  -0.01369   0.11570   0.00587   0.04423
   3        2PX         0.14803   0.09420  -0.08800   0.23484   0.16290
   4        2PY        -0.02849   0.17979  -0.10361  -0.14481   0.21562
   5        2PZ         0.00003  -0.00010   0.00002   0.00005  -0.00014
   6        3S         -0.13395  -0.02927   0.01705   0.02035   0.04653
   7        3PX         0.04719   0.04216  -0.09321   0.08344   0.07444
   8        3PY         0.01542   0.06260  -0.13468  -0.04795   0.09314
   9        3PZ        -0.00001  -0.00003   0.00007   0.00002  -0.00006
  10 2   C  1S         -0.09723   0.01188   0.05841   0.00344  -0.01322
  11        2S          0.19933  -0.02368  -0.12763  -0.00690   0.03353
  12        2PX         0.08083  -0.09612  -0.04088  -0.23928  -0.16905
  13        2PY        -0.00918   0.15376   0.11789  -0.13390   0.18587
  14        2PZ         0.00009  -0.00015  -0.00013  -0.00002  -0.00019
  15        3S          0.17896  -0.04950  -0.02129  -0.02050   0.01220
  16        3PX         0.03097  -0.03013  -0.07205  -0.07501  -0.05228
  17        3PY        -0.02976   0.06278   0.14799  -0.04532   0.09016
  18        3PZ         0.00005  -0.00007  -0.00013  -0.00001  -0.00010
  19 3   C  1S          0.01652   0.01368  -0.06094  -0.00005   0.00009
  20        2S         -0.03389  -0.02777   0.13352   0.00009  -0.00023
  21        2PX        -0.00761  -0.17074   0.11999   0.00029   0.00185
  22        2PY        -0.20673  -0.00002  -0.00015   0.27452  -0.05772
  23        2PZ         0.00011  -0.00010   0.00006  -0.00012   0.00001
  24        3S         -0.03075  -0.05695   0.02414   0.00012  -0.00012
  25        3PX        -0.00638  -0.06636   0.16522   0.00017   0.00086
  26        3PY        -0.04038   0.00001  -0.00002   0.08403  -0.00093
  27        3PZ         0.00001  -0.00003   0.00012  -0.00004  -0.00001
  28 4   C  1S          0.08273   0.01189   0.05840  -0.00332   0.01335
  29        2S         -0.16979  -0.02369  -0.12762   0.00664  -0.03385
  30        2PX        -0.12850  -0.09616  -0.04144   0.23922   0.16995
  31        2PY         0.02836  -0.15366  -0.11777  -0.13396   0.18823
  32        2PZ        -0.00010   0.00004   0.00001   0.00022  -0.00005
  33        3S         -0.15176  -0.04954  -0.02135   0.02050  -0.01227
  34        3PX        -0.03869  -0.03016  -0.07230   0.07492   0.05276
  35        3PY        -0.01800  -0.06273  -0.14790  -0.04555   0.09111
  36        3PZ        -0.00002   0.00001   0.00003   0.00008  -0.00004
  37 5   C  1S         -0.09085   0.00732  -0.05330   0.00296   0.01847
  38        2S          0.18534  -0.01372   0.11574  -0.00573  -0.04384
  39        2PX        -0.10329   0.09426  -0.08756  -0.23494  -0.16350
  40        2PY         0.00869  -0.17964   0.10361  -0.14495   0.21372
  41        2PZ        -0.00003   0.00016  -0.00015   0.00008  -0.00025
  42        3S          0.16614  -0.02932   0.01708  -0.02033  -0.04616
  43        3PX        -0.04068   0.04218  -0.09310  -0.08352  -0.07450
  44        3PY         0.02891  -0.06256   0.13465  -0.04785   0.09254
  45        3PZ        -0.00003   0.00006  -0.00015   0.00002  -0.00011
  46 6   C  1S          0.01573   0.00456   0.05061   0.00003  -0.00013
  47        2S         -0.03208  -0.00785  -0.10953  -0.00006   0.00031
  48        2PX         0.01095   0.21396   0.14090   0.00032   0.00214
  49        2PY         0.21157  -0.00011  -0.00018   0.27795  -0.10033
  50        2PZ        -0.00015   0.00001  -0.00003  -0.00021   0.00004
  51        3S         -0.02864  -0.01657  -0.01501   0.00007   0.00033
  52        3PX         0.00829   0.07785   0.16261   0.00023   0.00092
  53        3PY         0.04915  -0.00002  -0.00009   0.10188  -0.02983
  54        3PZ        -0.00003   0.00000  -0.00002  -0.00008   0.00000
  55 7   H  1S         -0.08620  -0.11659   0.14255   0.00850  -0.15351
  56        2S         -0.03332  -0.07476   0.06568   0.00599  -0.12617
  57 8   H  1S          0.10254  -0.10367  -0.13397  -0.00593  -0.13591
  58        2S          0.03114  -0.05392  -0.04475  -0.00346  -0.09524
  59 9   H  1S         -0.01684  -0.09739   0.13166   0.00023   0.00100
  60        2S         -0.00461  -0.04515   0.03670   0.00012   0.00062
  61 10  H  1S         -0.08665  -0.10364  -0.13405   0.00586   0.13729
  62        2S         -0.02610  -0.05391  -0.04480   0.00349   0.09620
  63 11  H  1S          0.10609  -0.11654   0.14242  -0.00841   0.15282
  64        2S          0.04076  -0.07473   0.06561  -0.00598   0.12557
  65 12  H  1S         -0.01907  -0.12332  -0.14809  -0.00021  -0.00130
  66        2S         -0.00808  -0.08715  -0.07861  -0.00014  -0.00115
                          16        17        18        19        20
                           O         O         O         O         O
     Eigenvalues --    -0.58146  -0.49964  -0.48363  -0.48299  -0.33341
   1 1   C  1S         -0.00857  -0.00001  -0.00261  -0.00682   0.00001
   2        2S          0.02093   0.00002   0.00709   0.01606  -0.00002
   3        2PX        -0.01442   0.00008   0.00109   0.24645  -0.00007
   4        2PY         0.15217   0.00007   0.21019  -0.03046  -0.00010
   5        2PZ        -0.00004   0.22076  -0.00006  -0.00006  -0.27822
   6        3S          0.01786   0.00008   0.00309   0.01738   0.00012
   7        3PX         0.01060   0.00002   0.03469   0.12086   0.00003
   8        3PY         0.05371   0.00011   0.13096  -0.00271  -0.00004
   9        3PZ        -0.00001   0.14602  -0.00004  -0.00004  -0.24645
  10 2   C  1S          0.00809   0.00003   0.00372   0.00361  -0.00004
  11        2S         -0.02009  -0.00007  -0.00982  -0.00729   0.00011
  12        2PX         0.04199  -0.00016  -0.03071  -0.24848   0.00013
  13        2PY        -0.17768   0.00022  -0.25246   0.00465  -0.00019
  14        2PZ         0.00018   0.20069   0.00019  -0.00014  -0.27160
  15        3S         -0.01385  -0.00011  -0.01406  -0.00694  -0.00004
  16        3PX         0.03113  -0.00005   0.01240  -0.11745   0.00014
  17        3PY        -0.07635   0.00006  -0.16074   0.05233  -0.00026
  18        3PZ         0.00010   0.12747   0.00014  -0.00011  -0.22331
  19 3   C  1S          0.01409  -0.00002  -0.00016  -0.00150   0.00000
  20        2S         -0.03653   0.00005   0.00020   0.00168   0.00000
  21        2PX         0.30002  -0.00016   0.02163   0.25681  -0.00001
  22        2PY         0.00037   0.00006   0.26720  -0.02276   0.00004
  23        2PZ         0.00026   0.19111  -0.00008   0.00018  -0.00866
  24        3S         -0.00238   0.00011  -0.00024  -0.00508   0.00013
  25        3PX         0.12828  -0.00015   0.01647   0.19616  -0.00007
  26        3PY        -0.00004   0.00006   0.09663  -0.00827  -0.00004
  27        3PZ         0.00011   0.11923  -0.00002   0.00014  -0.00701
  28 4   C  1S          0.00792   0.00002  -0.00306   0.00423   0.00002
  29        2S         -0.01966  -0.00004   0.00845  -0.00892  -0.00004
  30        2PX         0.03940  -0.00014  -0.01177  -0.24988  -0.00014
  31        2PY         0.17487   0.00010  -0.24988   0.03839   0.00011
  32        2PZ        -0.00001   0.20063   0.00012  -0.00017   0.26247
  33        3S         -0.01384  -0.00009   0.01276  -0.00945  -0.00009
  34        3PX         0.03033  -0.00008  -0.03209  -0.11352  -0.00008
  35        3PY         0.07503   0.00011  -0.16742  -0.02412   0.00011
  36        3PZ         0.00001   0.12744   0.00006  -0.00006   0.21545
  37 5   C  1S         -0.00884   0.00000   0.00146  -0.00711   0.00000
  38        2S          0.02156  -0.00001  -0.00436   0.01693  -0.00002
  39        2PX        -0.01196  -0.00003   0.04046   0.24285  -0.00005
  40        2PY        -0.15450   0.00026   0.21258  -0.00511   0.00031
  41        2PZ         0.00018   0.22074  -0.00023   0.00004   0.28576
  42        3S          0.01866   0.00001  -0.00031   0.01747   0.00007
  43        3PX         0.01170  -0.00004  -0.01389   0.12484  -0.00004
  44        3PY        -0.05479   0.00013   0.12975  -0.01928   0.00021
  45        3PZ         0.00008   0.14600  -0.00014   0.00003   0.25279
  46 6   C  1S         -0.02365   0.00001   0.00063   0.00707   0.00000
  47        2S          0.05522  -0.00001  -0.00151  -0.01710   0.00000
  48        2PX         0.28896  -0.00010  -0.01640  -0.18981   0.00001
  49        2PY         0.00032   0.00017  -0.24565   0.02082  -0.00007
  50        2PZ         0.00004   0.23132   0.00018  -0.00006   0.00807
  51        3S          0.06495  -0.00009  -0.00097  -0.01051  -0.00011
  52        3PX         0.12203  -0.00006  -0.01076  -0.12519  -0.00005
  53        3PY         0.00007   0.00012  -0.11510   0.00976  -0.00005
  54        3PZ         0.00003   0.15646   0.00008  -0.00004   0.00722
  55 7   H  1S         -0.07181   0.00001  -0.14446  -0.06807  -0.00001
  56        2S         -0.06041   0.00003  -0.12171  -0.06188   0.00000
  57 8   H  1S          0.09826  -0.00009   0.14716  -0.10178   0.00001
  58        2S          0.06615  -0.00012   0.10425  -0.06788   0.00000
  59 9   H  1S          0.16312   0.00000   0.01587   0.18798  -0.00001
  60        2S          0.10401   0.00002   0.00988   0.11700   0.00001
  61 10  H  1S          0.09614  -0.00003  -0.16235  -0.07528  -0.00004
  62        2S          0.06466  -0.00005  -0.11428  -0.04914  -0.00005
  63 11  H  1S         -0.07360   0.00004   0.13103  -0.09127   0.00004
  64        2S         -0.06189   0.00004   0.10966  -0.08137   0.00006
  65 12  H  1S         -0.16720   0.00005   0.01286   0.14975  -0.00002
  66        2S         -0.15143   0.00006   0.01214   0.14123  -0.00004
                          21        22        23        24        25
                           O         V         V         V         V
     Eigenvalues --    -0.33261   0.14589   0.14662   0.21944   0.28068
   1 1   C  1S          0.00001   0.00004  -0.00002   0.03901   0.05196
   2        2S         -0.00001  -0.00013   0.00008  -0.03690  -0.03345
   3        2PX        -0.00003  -0.00006   0.00003   0.06736   0.08698
   4        2PY        -0.00009  -0.00012  -0.00010   0.11535   0.18529
   5        2PZ        -0.14706  -0.18596  -0.25474  -0.00009  -0.00009
   6        3S         -0.00021   0.00016  -0.00009  -0.68626  -1.25625
   7        3PX        -0.00007   0.00004  -0.00028   0.08606   0.44758
   8        3PY        -0.00012   0.00020  -0.00027   0.36751   0.69015
   9        3PZ        -0.12366  -0.35848  -0.48571  -0.00021  -0.00024
  10 2   C  1S          0.00002  -0.00001   0.00005   0.02683   0.00895
  11        2S         -0.00006   0.00002  -0.00011  -0.03941   0.01156
  12        2PX        -0.00004   0.00004  -0.00014  -0.02454  -0.06925
  13        2PY         0.00012  -0.00011   0.00019   0.05665   0.11468
  14        2PZ         0.16967  -0.12671   0.28769  -0.00004  -0.00012
  15        3S          0.00010  -0.00019  -0.00013  -0.27028  -0.45880
  16        3PX        -0.00009   0.00007  -0.00049  -0.14587  -0.31302
  17        3PY         0.00015  -0.00052   0.00051   0.09813   0.15742
  18        3PZ         0.14649  -0.22603   0.52426  -0.00015  -0.00044
  19 3   C  1S         -0.00002  -0.00001  -0.00002   0.02505   0.00001
  20        2S          0.00006  -0.00001   0.00007  -0.04105  -0.00001
  21        2PX        -0.00027  -0.00021  -0.00003  -0.03449  -0.00047
  22        2PY         0.00012   0.00014  -0.00007  -0.00004   0.04166
  23        2PZ         0.32203   0.31279  -0.01472  -0.00006  -0.00003
  24        3S         -0.00006   0.00052  -0.00011  -0.20087   0.00009
  25        3PX        -0.00013  -0.00058   0.00013  -0.07956  -0.00150
  26        3PY         0.00012   0.00012  -0.00016  -0.00009  -0.13336
  27        3PZ         0.26201   0.55207  -0.02616  -0.00012   0.00005
  28 4   C  1S          0.00000   0.00001  -0.00003   0.02682  -0.00873
  29        2S         -0.00001  -0.00003   0.00007  -0.03940  -0.01171
  30        2PX        -0.00010   0.00010   0.00015  -0.02460   0.06869
  31        2PY         0.00012  -0.00007  -0.00016  -0.05665   0.11427
  32        2PZ         0.18344  -0.15292  -0.27474   0.00003   0.00000
  33        3S          0.00014  -0.00028   0.00013  -0.27015   0.45292
  34        3PX        -0.00014   0.00033   0.00041  -0.14610   0.31217
  35        3PY         0.00006  -0.00001  -0.00034  -0.09800   0.15640
  36        3PZ         0.15783  -0.27358  -0.50114  -0.00007   0.00021
  37 5   C  1S          0.00000   0.00001   0.00002   0.03903  -0.05179
  38        2S          0.00001  -0.00007  -0.00004  -0.03691   0.03308
  39        2PX         0.00002   0.00001  -0.00008   0.06745  -0.08701
  40        2PY        -0.00012  -0.00013   0.00027  -0.11540   0.18537
  41        2PZ        -0.13192  -0.16113   0.27113   0.00011  -0.00019
  42        3S         -0.00018   0.00027  -0.00014  -0.68643   1.25562
  43        3PX        -0.00004   0.00030   0.00009   0.08623  -0.44533
  44        3PY        -0.00004  -0.00046   0.00058  -0.36764   0.68905
  45        3PZ        -0.11022  -0.31114   0.51739   0.00037  -0.00072
  46 6   C  1S          0.00002  -0.00002  -0.00001   0.05276  -0.00017
  47        2S         -0.00006   0.00006   0.00003  -0.04630   0.00018
  48        2PX        -0.00002  -0.00001   0.00001   0.18339  -0.00042
  49        2PY        -0.00022   0.00023   0.00003  -0.00003  -0.00006
  50        2PZ        -0.31097   0.31482  -0.01468   0.00005   0.00001
  51        3S          0.00004  -0.00012   0.00014  -0.97271   0.00300
  52        3PX         0.00011  -0.00040   0.00002   0.62556  -0.00297
  53        3PY        -0.00020   0.00055   0.00028  -0.00014  -0.34875
  54        3PZ        -0.27930   0.61775  -0.02881   0.00012   0.00025
  55 7   H  1S          0.00001   0.00003   0.00000   0.03616   0.00412
  56        2S          0.00001   0.00032  -0.00012   0.89552   1.50304
  57 8   H  1S          0.00002  -0.00003   0.00010   0.03712   0.01784
  58        2S          0.00002  -0.00014   0.00035   0.46246   0.63418
  59 9   H  1S         -0.00004  -0.00001  -0.00001   0.03382   0.00014
  60        2S         -0.00005   0.00004  -0.00010   0.32723   0.00222
  61 10  H  1S          0.00003   0.00001  -0.00005   0.03715  -0.01776
  62        2S          0.00004   0.00002  -0.00016   0.46250  -0.62970
  63 11  H  1S         -0.00001   0.00002   0.00000   0.03617  -0.00410
  64        2S         -0.00003   0.00019   0.00002   0.89575  -1.50060
  65 12  H  1S          0.00003  -0.00004  -0.00002   0.03258   0.00004
  66        2S          0.00008  -0.00031  -0.00010   1.30625  -0.00433
                          26        27        28        29        30
                           V         V         V         V         V
     Eigenvalues --     0.28665   0.31283   0.33444   0.35643   0.36253
   1 1   C  1S         -0.02662   0.05442   0.05622   0.00001  -0.00001
   2        2S          0.06796  -0.10802  -0.06891  -0.05948   0.00017
   3        2PX        -0.00855   0.08965  -0.00224  -0.04094  -0.00006
   4        2PY         0.00919   0.07063   0.02398   0.01650   0.00012
   5        2PZ         0.00001   0.00006   0.00005   0.00084   0.23079
   6        3S         -0.07273  -0.17599  -1.02503   0.95069  -0.00295
   7        3PX        -0.50296   0.76559  -0.01082   0.08150  -0.00083
   8        3PY        -0.24790   1.15798   0.42518   0.81630  -0.00259
   9        3PZ        -0.00002  -0.00037  -0.00035   0.00165   0.66753
  10 2   C  1S         -0.03216  -0.02550  -0.07611  -0.05985   0.00022
  11        2S          0.00999   0.08180   0.08060   0.12203  -0.00053
  12        2PX         0.09713   0.02351   0.03570   0.04606  -0.00016
  13        2PY        -0.09037  -0.07444  -0.14767  -0.02868  -0.00002
  14        2PZ         0.00008   0.00006   0.00021  -0.00074  -0.24947
  15        3S          1.04702  -0.40049   1.53249   0.28208  -0.00129
  16        3PX         0.05846   0.29697   0.22679   0.80566  -0.00310
  17        3PY        -0.15366  -1.00472  -0.74433  -0.76768   0.00239
  18        3PZ         0.00036   0.00062   0.00113  -0.00141  -0.69605
  19 3   C  1S         -0.01837  -0.03144  -0.00004   0.10194  -0.00037
  20        2S          0.02865  -0.02536  -0.00003  -0.16827   0.00048
  21        2PX         0.15320   0.13750   0.00023  -0.14409   0.00029
  22        2PY         0.00005  -0.00006   0.04963  -0.00017   0.00020
  23        2PZ         0.00016   0.00014   0.00003   0.00090   0.25935
  24        3S          0.19729   1.62658   0.00223  -1.14232   0.00494
  25        3PX         0.61451  -0.20861   0.00010  -1.44311   0.00432
  26        3PY        -0.00062  -0.00087   0.44244  -0.00103   0.00041
  27        3PZ         0.00044  -0.00026  -0.00024   0.00163   0.71030
  28 4   C  1S         -0.03227  -0.02569   0.07604  -0.05987   0.00020
  29        2S          0.01001   0.08202  -0.08046   0.12206  -0.00046
  30        2PX         0.09749   0.02359  -0.03580   0.04630  -0.00017
  31        2PY         0.09087   0.07469  -0.14745   0.02856  -0.00019
  32        2PZ        -0.00006  -0.00007  -0.00009  -0.00088  -0.24942
  33        3S          1.05050  -0.39667  -1.53221   0.28298  -0.00087
  34        3PX         0.06027   0.29842  -0.22729   0.80724  -0.00317
  35        3PY         0.15424   1.00552  -0.74165   0.76631  -0.00285
  36        3PZ        -0.00010  -0.00055  -0.00018  -0.00250  -0.69575
  37 5   C  1S         -0.02685   0.05457  -0.05612  -0.00004   0.00003
  38        2S          0.06805  -0.10823   0.06874  -0.05946   0.00020
  39        2PX        -0.00915   0.08962   0.00237  -0.04102  -0.00004
  40        2PY        -0.00818  -0.07059   0.02373  -0.01648   0.00026
  41        2PZ         0.00004   0.00016   0.00008   0.00086   0.23077
  42        3S         -0.06643  -0.17811   1.02391   0.95253  -0.00436
  43        3PX        -0.50577   0.76626   0.01145   0.08182  -0.00083
  44        3PY         0.25130  -1.15779   0.42197  -0.81558   0.00371
  45        3PZ        -0.00036   0.00135   0.00015   0.00303   0.66743
  46 6   C  1S          0.06286  -0.05840  -0.00003   0.02546  -0.00007
  47        2S         -0.06288   0.13831   0.00010   0.02489  -0.00009
  48        2PX         0.19706  -0.00920  -0.00004  -0.01558   0.00009
  49        2PY        -0.00002   0.00015  -0.06381  -0.00006  -0.00008
  50        2PZ         0.00002  -0.00015  -0.00004  -0.00082  -0.22200
  51        3S         -1.11814  -0.03064  -0.00092  -1.42823   0.00472
  52        3PX         1.27291  -1.20418  -0.00134  -0.74083   0.00302
  53        3PY        -0.00116   0.00115  -0.40312  -0.00012   0.00005
  54        3PZ         0.00028  -0.00041   0.00004  -0.00218  -0.65342
  55 7   H  1S         -0.01306   0.00873  -0.01965   0.01903  -0.00008
  56        2S         -0.44333   1.49931   0.73637   0.35434  -0.00170
  57 8   H  1S         -0.01439  -0.03454  -0.00368  -0.01010  -0.00009
  58        2S         -0.74928  -0.94312  -1.48448  -1.18105   0.00501
  59 9   H  1S         -0.04472   0.00036  -0.00002   0.02798  -0.00008
  60        2S         -0.91479  -0.60594  -0.00120   2.01176  -0.00681
  61 10  H  1S         -0.01444  -0.03454   0.00366  -0.01006  -0.00003
  62        2S         -0.75284  -0.94615   1.48228  -1.18115   0.00433
  63 11  H  1S         -0.01311   0.00868   0.01964   0.01909  -0.00011
  64        2S         -0.45120   1.50009  -0.73266   0.35325  -0.00146
  65 12  H  1S         -0.01299  -0.00409  -0.00003  -0.03076   0.00010
  66        2S          1.82330  -1.14750  -0.00099  -0.20569   0.00107
                          31        32        33        34        35
                           V         V         V         V         V
     Eigenvalues --     0.46704   0.46841   0.49912   0.49951   0.68197
   1 1   C  1S          0.07533   0.03601  -0.01427   0.04030   0.00765
   2        2S         -0.05172  -0.03407  -0.01215  -0.02129  -0.00623
   3        2PX        -0.03813  -0.01622  -0.14396  -0.16248  -0.32899
   4        2PY        -0.17189  -0.10138   0.06666   0.04537   0.16915
   5        2PZ         0.00009   0.00004  -0.00008  -0.00010  -0.00008
   6        3S         -2.44075  -0.87317   0.97990  -1.64217  -0.12635
   7        3PX        -0.89855   0.77065  -1.62150  -1.31334   0.40908
   8        3PY        -1.22904  -1.35182   0.68206   0.38099  -0.32174
   9        3PZ         0.00083   0.00068  -0.00062  -0.00038   0.00024
  10 2   C  1S         -0.05168   0.03646  -0.06295  -0.00082  -0.00771
  11        2S          0.03927  -0.01575   0.02654  -0.01224   0.00846
  12        2PX        -0.11796   0.10153   0.00690  -0.18171   0.28374
  13        2PY         0.12761  -0.05711   0.09350  -0.12787   0.18588
  14        2PZ        -0.00017   0.00009  -0.00003   0.00011   0.00002
  15        3S          1.40887  -1.32402   2.50530   0.23439   0.12990
  16        3PX        -1.33107   0.22322  -0.00577  -1.83618  -0.50891
  17        3PY         0.88275  -0.91644   0.66613  -1.33186  -0.20801
  18        3PZ        -0.00078   0.00048   0.00045   0.00056   0.00001
  19 3   C  1S          0.00041  -0.05095  -0.01520  -0.06836   0.00004
  20        2S         -0.00021   0.03182   0.00584   0.02638   0.00096
  21        2PX         0.00201  -0.19929  -0.02074  -0.09420  -0.00036
  22        2PY        -0.04744   0.00027   0.23049  -0.05139  -0.32326
  23        2PZ         0.00005  -0.00017  -0.00019  -0.00015   0.00015
  24        3S         -0.01170   1.49164   0.59620   2.68967  -0.00181
  25        3PX         0.01781  -1.68742  -0.15164  -0.69928   0.00144
  26        3PY         0.34164   0.00980   2.22536  -0.50138   0.56362
  27        3PZ        -0.00006  -0.00125  -0.00155  -0.00108  -0.00032
  28 4   C  1S          0.05083   0.03795   0.05631  -0.02780   0.00765
  29        2S         -0.03891  -0.01686  -0.02913   0.00036  -0.00667
  30        2PX         0.11508   0.10362  -0.08475  -0.16141  -0.28397
  31        2PY         0.12681   0.06045   0.13917   0.07534   0.18549
  32        2PZ        -0.00001   0.00003  -0.00002  -0.00004  -0.00028
  33        3S         -1.37744  -1.36672  -2.15280   1.29030  -0.12837
  34        3PX         1.32075   0.24949  -0.77991  -1.66790   0.50777
  35        3PY         0.86669   0.93906   1.16519   0.91643  -0.20893
  36        3PZ        -0.00015  -0.00034  -0.00098  -0.00086   0.00031
  37 5   C  1S         -0.07597   0.03449   0.02999   0.03065  -0.00760
  38        2S          0.05235  -0.03296   0.00199  -0.02463   0.00777
  39        2PX         0.03773  -0.01481   0.06082  -0.20846   0.32924
  40        2PY        -0.17436   0.09792   0.04052  -0.06898   0.16868
  41        2PZ         0.00026  -0.00012  -0.00008  -0.00007  -0.00006
  42        3S          2.45460  -0.82555  -1.58249  -1.07827   0.12268
  43        3PX         0.87701   0.79652   0.89932  -1.88401  -0.41036
  44        3PY        -1.25934   1.32694   0.44586  -0.63034  -0.32011
  45        3PZ         0.00158  -0.00104  -0.00060  -0.00029   0.00015
  46 6   C  1S          0.00104  -0.09238   0.00547   0.02309  -0.00003
  47        2S         -0.00080   0.07223   0.00120   0.00616   0.00076
  48        2PX        -0.00205   0.19184   0.00158   0.00893   0.00030
  49        2PY        -0.02300   0.00043   0.23074  -0.05185  -0.38486
  50        2PZ         0.00000  -0.00003  -0.00010   0.00009   0.00030
  51        3S         -0.03242   2.86817  -0.33012  -1.42370   0.00045
  52        3PX        -0.01775   1.71240   0.03261   0.16929   0.00052
  53        3PY        -1.61892  -0.01278   2.06081  -0.45999   0.50625
  54        3PZ         0.00096  -0.00017  -0.00122   0.00077  -0.00035
  55 7   H  1S         -0.03925   0.02076   0.09530  -0.10159   0.00971
  56        2S         -0.79458  -0.44208  -0.27600  -0.01271  -0.02805
  57 8   H  1S         -0.01769  -0.02596   0.12730   0.02660  -0.00847
  58        2S          0.89576  -0.53800   0.09326  -0.20295   0.02779
  59 9   H  1S          0.00041  -0.01207   0.02788   0.12430   0.00005
  60        2S         -0.01254   1.13076   0.03508   0.16928  -0.00022
  61 10  H  1S          0.01855  -0.02636  -0.10359   0.07832   0.00855
  62        2S         -0.88534  -0.55634  -0.16802  -0.14034  -0.02732
  63 11  H  1S          0.03846   0.02089  -0.12975  -0.05123  -0.00978
  64        2S          0.80380  -0.42272   0.24637  -0.13251   0.02786
  65 12  H  1S         -0.00075   0.04253  -0.03227  -0.14307  -0.00010
  66        2S         -0.00832   0.85141   0.06370   0.29433   0.00040
                          36        37        38        39        40
                           V         V         V         V         V
     Eigenvalues --     0.75333   0.77067   0.77277   0.78232   0.83905
   1 1   C  1S         -0.00014  -0.12008   0.00350  -0.00485  -0.01185
   2        2S          0.00003   0.08063   0.00767   0.54393  -0.42995
   3        2PX        -0.00002   0.03177   0.18693   0.12038   0.13908
   4        2PY         0.00030   0.10158  -0.11300   0.21367   0.04134
   5        2PZ         0.46146  -0.00051  -0.00016   0.00001   0.00051
   6        3S          0.00523   4.51509  -0.14241  -0.38541   0.65811
   7        3PX         0.00210   1.84293   3.37179  -0.09217  -0.11470
   8        3PY         0.00319   2.84633  -2.06387  -0.17538  -0.26861
   9        3PZ        -0.32734  -0.00130   0.00073   0.00002  -0.00046
  10 2   C  1S          0.00015   0.11553  -0.00536  -0.00466  -0.00206
  11        2S         -0.00030  -0.07129   0.01313   0.52385  -0.31298
  12        2PX        -0.00001   0.08989   0.19434  -0.12810   0.00726
  13        2PY         0.00013  -0.08586   0.11703   0.21607   0.12170
  14        2PZ         0.39572   0.00072   0.00005  -0.00033   0.00176
  15        3S         -0.00520  -4.51945   0.19012  -0.36766   0.38183
  16        3PX         0.00202   1.76546   3.39477   0.10333   0.19841
  17        3PY        -0.00349  -2.84978   2.12418  -0.16003  -0.22910
  18        3PZ        -0.26622   0.00056   0.00023   0.00015  -0.00145
  19 3   C  1S         -0.00013  -0.11369   0.00404  -0.00406  -0.00253
  20        2S          0.00016   0.06712  -0.00219   0.51358  -0.25568
  21        2PX        -0.00030  -0.12759   0.00422  -0.25348  -0.11264
  22        2PY         0.00021   0.00880   0.23565   0.00007  -0.00097
  23        2PZ         0.36768   0.00016  -0.00004   0.00012   0.00049
  24        3S          0.00518   4.52426  -0.16794  -0.37731   0.31360
  25        3PX        -0.00380  -3.33509   0.12051   0.19822   0.25464
  26        3PY        -0.00009   0.14023   4.02160  -0.00267  -0.00028
  27        3PZ        -0.24218  -0.00250  -0.00168   0.00004  -0.00019
  28 4   C  1S          0.00014   0.11567  -0.00288  -0.00478  -0.00224
  29        2S         -0.00015  -0.07200  -0.00778   0.52371  -0.31285
  30        2PX        -0.00005   0.07569  -0.20061  -0.12729   0.00611
  31        2PY         0.00035   0.09422   0.11093  -0.21684  -0.12167
  32        2PZ         0.39568  -0.00030  -0.00040   0.00010   0.00008
  33        3S         -0.00522  -4.51873   0.13973  -0.36660   0.38231
  34        3PX         0.00187   1.52454  -3.50955   0.10573   0.20126
  35        3PY         0.00321   2.99010   1.91389   0.15759   0.22673
  36        3PZ        -0.26614  -0.00137  -0.00315  -0.00009  -0.00002
  37 5   C  1S         -0.00013  -0.12007   0.00504  -0.00475  -0.01166
  38        2S         -0.00006   0.08005  -0.01287   0.54386  -0.42972
  39        2PX        -0.00013   0.01867  -0.18831   0.11912   0.13854
  40        2PY         0.00034  -0.10939  -0.10584  -0.21412  -0.04107
  41        2PZ         0.46139  -0.00110   0.00022   0.00018  -0.00097
  42        3S          0.00529   4.51432  -0.18236  -0.38631   0.65708
  43        3PX         0.00201   1.60183  -3.49484  -0.08716  -0.11274
  44        3PY        -0.00369  -2.98376  -1.85596   0.17908   0.27007
  45        3PZ        -0.32729   0.00398   0.00089  -0.00021   0.00059
  46 6   C  1S          0.00013   0.12261  -0.00437  -0.00512  -0.01976
  47        2S         -0.00004  -0.08014   0.00312   0.55442  -0.49146
  48        2PX        -0.00020  -0.09524   0.00349   0.24188   0.11654
  49        2PY         0.00034  -0.00797  -0.21351   0.00099   0.00073
  50        2PZ         0.49975  -0.00162   0.00034   0.00027  -0.00116
  51        3S         -0.00525  -4.51920   0.16236  -0.38128   0.78824
  52        3PX        -0.00373  -3.40458   0.12085  -0.19026  -0.29988
  53        3PY        -0.00033  -0.13743  -3.93068   0.00136   0.00067
  54        3PZ        -0.36583   0.00171   0.00285  -0.00016   0.00125
  55 7   H  1S         -0.00014  -0.17382   0.02342  -0.09584  -0.40835
  56        2S          0.00139   1.27415  -0.04094   0.13640  -0.08519
  57 8   H  1S          0.00026   0.14866   0.01040  -0.09454  -0.34038
  58        2S         -0.00141  -1.25512   0.05116   0.13980  -0.06094
  59 9   H  1S         -0.00006  -0.13698   0.00457  -0.09322  -0.32319
  60        2S          0.00142   1.24779  -0.04444   0.13771  -0.02656
  61 10  H  1S          0.00023   0.14787  -0.02144  -0.09479  -0.34086
  62        2S         -0.00138  -1.25566   0.03875   0.14018  -0.06048
  63 11  H  1S         -0.00016  -0.17515  -0.01102  -0.09558  -0.40761
  64        2S          0.00136   1.27361  -0.04958   0.13607  -0.08527
  65 12  H  1S          0.00023   0.18942  -0.00693  -0.09655  -0.45603
  66        2S         -0.00139  -1.28349   0.04567   0.13957  -0.09805
                          41        42        43        44        45
                           V         V         V         V         V
     Eigenvalues --     0.84415   0.84513   0.87294   0.87300   0.89932
   1 1   C  1S         -0.00010   0.00022  -0.04230  -0.07043  -0.01343
   2        2S         -0.00067   0.00081  -0.13399  -0.05786  -0.53780
   3        2PX        -0.00009  -0.00038   0.48354  -0.19949  -0.31462
   4        2PY         0.00019  -0.00047  -0.19584   0.33394   0.13458
   5        2PZ        -0.60655  -0.22879  -0.00040  -0.00017  -0.00028
   6        3S          0.00340  -0.00631   0.49146   0.27209   0.64752
   7        3PX         0.00094  -0.00150  -0.21157   0.25800   0.16058
   8        3PY         0.00092  -0.00270   0.38796  -0.01871  -0.20110
   9        3PZ         0.60242   0.20176   0.00054  -0.00008   0.00033
  10 2   C  1S          0.00002  -0.00015   0.07632  -0.00351  -0.05217
  11        2S         -0.00082   0.00059  -0.05716  -0.16317  -0.55967
  12        2PX         0.00033  -0.00079   0.15049   0.46079   0.07999
  13        2PY        -0.00051   0.00021  -0.15606   0.24535   0.11074
  14        2PZ        -0.48225   0.38926   0.00022   0.00046   0.00075
  15        3S         -0.00165   0.00444  -0.47191   0.36529   0.81189
  16        3PX         0.00052  -0.00133   0.22270  -0.40190   0.04772
  17        3PY        -0.00108   0.00333  -0.32672  -0.14587   0.06347
  18        3PZ         0.42057  -0.36969  -0.00035  -0.00052  -0.00053
  19 3   C  1S         -0.00009   0.00013  -0.04591   0.05744  -0.00316
  20        2S         -0.00048  -0.00024   0.12128  -0.14541  -0.04328
  21        2PX        -0.00035   0.00012  -0.12879   0.16101  -0.00346
  22        2PY         0.00043   0.00014  -0.33228  -0.27279   0.64185
  23        2PZ        -0.00200   0.59945   0.00021  -0.00023  -0.00031
  24        3S          0.00311  -0.00486   0.24223  -0.30410   0.05699
  25        3PX        -0.00129   0.00344  -0.31784   0.39219   0.00295
  26        3PY        -0.00081   0.00021   0.35238   0.29027  -0.26084
  27        3PZ         0.00206  -0.51958  -0.00047   0.00069   0.00014
  28 4   C  1S          0.00012  -0.00017  -0.01237  -0.07565   0.05026
  29        2S         -0.00058   0.00032   0.17867   0.01835   0.51066
  30        2PX        -0.00019  -0.00071  -0.47945  -0.04435  -0.13362
  31        2PY         0.00007   0.00032   0.20595  -0.20758   0.14091
  32        2PZ         0.48051   0.39134  -0.00070   0.00032  -0.00031
  33        3S         -0.00196   0.00467  -0.26481   0.53947  -0.74801
  34        3PX         0.00194  -0.00188   0.34323  -0.30935  -0.01438
  35        3PY         0.00217  -0.00374  -0.21191  -0.28404   0.05597
  36        3PZ        -0.41920  -0.37098   0.00084  -0.00007  -0.00007
  37 5   C  1S         -0.00013   0.00021   0.07774   0.02593   0.01629
  38        2S         -0.00025   0.00045   0.08815   0.11249   0.56721
  39        2PX         0.00014  -0.00048   0.09531  -0.51666   0.27707
  40        2PY         0.00035   0.00003   0.28650  -0.26305   0.11296
  41        2PZ         0.60816  -0.22501   0.00041   0.00030  -0.00048
  42        3S          0.00370  -0.00605  -0.37199  -0.41556  -0.68647
  43        3PX         0.00121  -0.00192  -0.20807   0.26180  -0.15200
  44        3PY        -0.00218   0.00296   0.06023   0.38111  -0.18717
  45        3PZ        -0.60404   0.19757  -0.00095  -0.00067   0.00071
  46 6   C  1S          0.00009  -0.00015  -0.05076   0.06309   0.00158
  47        2S         -0.00073   0.00145  -0.07376   0.08813   0.03517
  48        2PX         0.00005   0.00022   0.11839  -0.14799   0.00238
  49        2PY        -0.00006  -0.00062   0.53034   0.42394   0.33212
  50        2PZ         0.00156  -0.65822  -0.00042  -0.00062  -0.00011
  51        3S         -0.00151   0.00329   0.20323  -0.25370  -0.04321
  52        3PX        -0.00259   0.00427   0.07852  -0.09887   0.00133
  53        3PY         0.00021   0.00037  -0.37819  -0.30315  -0.13060
  54        3PZ        -0.00139   0.67240   0.00027   0.00082  -0.00014
  55 7   H  1S         -0.00085   0.00120  -0.16473  -0.28583  -0.19546
  56        2S          0.00054  -0.00138   0.08341   0.11416  -0.15048
  57 8   H  1S         -0.00063   0.00020   0.25058  -0.06165  -0.33659
  58        2S         -0.00072   0.00163  -0.24163  -0.01151  -0.07200
  59 9   H  1S         -0.00072   0.00059  -0.10212   0.13072  -0.02537
  60        2S          0.00065  -0.00156   0.18539  -0.22882  -0.00712
  61 10  H  1S         -0.00024   0.00004   0.01135  -0.25933   0.31106
  62        2S         -0.00110   0.00163   0.06380   0.23295   0.06073
  63 11  H  1S         -0.00083   0.00105   0.31603   0.09789   0.20785
  64        2S          0.00094  -0.00150  -0.12793  -0.05796   0.15430
  65 12  H  1S         -0.00038   0.00037  -0.19374   0.24089   0.01231
  66        2S         -0.00105   0.00201   0.06184  -0.07854   0.00873
                          46        47        48        49        50
                           V         V         V         V         V
     Eigenvalues --     0.90122   0.91518   0.91662   0.99280   1.11264
   1 1   C  1S          0.02617   0.00011  -0.00006   0.00002   0.00034
   2        2S          0.26952   0.00047  -0.00024   0.00019  -0.06161
   3        2PX        -0.23703  -0.00017   0.00018   0.00057   0.29898
   4        2PY         0.12602   0.00008   0.00039  -0.00074   0.42509
   5        2PZ        -0.00081   0.43090   0.50534  -0.42641  -0.00018
   6        3S         -0.33227  -0.00098   0.00039   0.00033  -1.09265
   7        3PX         0.02782   0.00034   0.00106  -0.00051  -1.26878
   8        3PY        -0.04497  -0.00075  -0.00119   0.00174  -1.79358
   9        3PZ         0.00128  -0.67534  -0.78401   1.02685   0.00071
  10 2   C  1S         -0.00611  -0.00002   0.00003   0.00006   0.01813
  11        2S         -0.35738  -0.00008  -0.00059   0.00046  -0.13610
  12        2PX        -0.46683  -0.00085   0.00048  -0.00010  -0.00118
  13        2PY        -0.28369  -0.00010  -0.00088   0.00073   0.01827
  14        2PZ         0.00044   0.21521  -0.63258   0.51529   0.00002
  15        3S          0.38259   0.00053   0.00005  -0.00080   1.07880
  16        3PX         0.30775   0.00116   0.00051   0.00079  -0.23356
  17        3PY         0.02366   0.00044   0.00152  -0.00200   0.25115
  18        3PZ        -0.00045  -0.29100   0.90901  -1.16194  -0.00010
  19 3   C  1S         -0.05947  -0.00007  -0.00009   0.00006  -0.01789
  20        2S         -0.68334  -0.00041  -0.00051   0.00046   0.06203
  21        2PX        -0.07650   0.00027  -0.00021   0.00053   0.13361
  22        2PY        -0.04191  -0.00004   0.00008  -0.00061   0.00009
  23        2PZ        -0.00021  -0.65990   0.00913  -0.56644   0.00016
  24        3S          1.01398   0.00056   0.00097   0.00069  -0.55868
  25        3PX        -0.02213  -0.00045  -0.00011  -0.00176  -0.25789
  26        3PY         0.01522   0.00091   0.00098   0.00114  -0.00108
  27        3PZ        -0.00002   0.89123  -0.01211   1.23564  -0.00015
  28 4   C  1S         -0.01300   0.00003   0.00001   0.00000   0.01812
  29        2S         -0.42208  -0.00006  -0.00025   0.00028  -0.13596
  30        2PX        -0.45769  -0.00075  -0.00114   0.00007  -0.00085
  31        2PY         0.26873   0.00052   0.00063  -0.00006  -0.01697
  32        2PZ        -0.00101   0.23152   0.62721   0.51487   0.00001
  33        3S          0.48249   0.00042  -0.00003  -0.00090   1.08110
  34        3PX         0.31698  -0.00013   0.00048   0.00024  -0.23440
  35        3PY        -0.03673  -0.00010   0.00046   0.00016  -0.25720
  36        3PZ         0.00099  -0.31473  -0.90171  -1.16127   0.00006
  37 5   C  1S          0.02506   0.00006   0.00006  -0.00001   0.00049
  38        2S          0.20235   0.00050   0.00021  -0.00008  -0.06317
  39        2PX        -0.27579  -0.00013  -0.00010   0.00033   0.30037
  40        2PY        -0.14071   0.00038  -0.00034  -0.00004  -0.42808
  41        2PZ        -0.00028   0.41645  -0.51716  -0.42638   0.00043
  42        3S         -0.25341  -0.00096   0.00044   0.00010  -1.09072
  43        3PX         0.04953  -0.00083  -0.00101  -0.00050  -1.27201
  44        3PY         0.07250  -0.00083  -0.00047   0.00005   1.80257
  45        3PZ         0.00045  -0.65328   0.80251   1.02669  -0.00195
  46 6   C  1S          0.01804  -0.00003   0.00000  -0.00007  -0.02087
  47        2S          0.55866   0.00090   0.00008   0.00010   0.40138
  48        2PX         0.05635   0.00030   0.00007  -0.00010  -1.01218
  49        2PY        -0.01720  -0.00071   0.00042   0.00003  -0.00005
  50        2PZ         0.00145  -0.65096   0.00847   0.38839  -0.00024
  51        3S         -0.70302  -0.00068  -0.00042  -0.00114   0.45300
  52        3PX         0.01272   0.00028  -0.00041   0.00041   3.53986
  53        3PY         0.00677   0.00027  -0.00175  -0.00043   0.00040
  54        3PZ        -0.00194   1.05502  -0.01399  -0.96546   0.00054
  55 7   H  1S          0.12595   0.00058  -0.00038   0.00027   0.09160
  56        2S          0.04793  -0.00016   0.00004   0.00021  -1.11174
  57 8   H  1S         -0.16179  -0.00009  -0.00004   0.00023   0.13678
  58        2S         -0.10792   0.00007  -0.00007  -0.00036  -0.14845
  59 9   H  1S         -0.42985  -0.00038  -0.00052   0.00043  -0.15578
  60        2S         -0.08123  -0.00011   0.00009   0.00036   0.41137
  61 10  H  1S         -0.20347   0.00011  -0.00015   0.00006   0.13641
  62        2S         -0.11449   0.00005  -0.00040  -0.00006  -0.14547
  63 11  H  1S          0.10418   0.00036   0.00025   0.00009   0.09339
  64        2S          0.02787  -0.00010   0.00023   0.00009  -1.11917
  65 12  H  1S          0.17007   0.00009  -0.00006  -0.00015  -0.36284
  66        2S          0.14230   0.00046  -0.00015   0.00036   2.24344
                          51        52        53        54        55
                           V         V         V         V         V
     Eigenvalues --     1.12057   1.13885   1.15601   1.15782   1.23335
   1 1   C  1S         -0.02780  -0.00196  -0.01902   0.01619   0.00568
   2        2S          0.38634  -0.14228   0.39025  -0.51306  -0.29045
   3        2PX        -0.37304   0.16386  -0.04905   0.22018   0.24964
   4        2PY        -0.62062   0.40406  -0.34457   0.16579   0.24217
   5        2PZ         0.00029  -0.00034   0.00022  -0.00003  -0.00009
   6        3S         -0.48334  -1.13463  -1.39619   1.73625   0.37471
   7        3PX         1.19796  -0.73185  -0.39843  -0.58487  -0.58858
   8        3PY         1.88746  -1.85129   0.71495   0.04850  -0.07097
   9        3PZ        -0.00117   0.00169  -0.00036  -0.00045  -0.00010
  10 2   C  1S          0.01130  -0.00730   0.00600   0.03028   0.00874
  11        2S         -0.04770   0.19889  -0.17998  -0.61326  -0.50793
  12        2PX        -0.18448   0.30259   0.17423  -0.37322  -0.11938
  13        2PY         0.38089  -0.61593  -0.00321   0.50366   0.39568
  14        2PZ        -0.00062   0.00107   0.00006  -0.00091  -0.00049
  15        3S         -0.47324   1.26054   1.24187   1.58279   1.15747
  16        3PX         0.69256  -1.25248  -0.96789   1.11490  -0.13732
  17        3PY        -1.47348   2.67087   0.23750  -1.16818  -0.67816
  18        3PZ         0.00164  -0.00307  -0.00028   0.00220   0.00081
  19 3   C  1S          0.00005  -0.00316   0.03339  -0.00044   0.01150
  20        2S          0.00059   0.07079  -0.61541   0.00790  -0.60261
  21        2PX        -0.00117  -0.57986  -0.77939   0.00985  -0.45743
  22        2PY         0.01971   0.00054  -0.00196  -0.17447  -0.00012
  23        2PZ         0.00000  -0.00046  -0.00039   0.00016  -0.00019
  24        3S         -0.00261  -2.24875   1.07848  -0.01372   1.46326
  25        3PX         0.00464   2.87985   2.44819  -0.03098   0.68810
  26        3PY        -0.14359  -0.00338   0.00969   0.84586   0.00106
  27        3PZ        -0.00013   0.00260   0.00117  -0.00073   0.00014
  28 4   C  1S         -0.01139  -0.00730   0.00522  -0.03039   0.00875
  29        2S          0.04912   0.19798  -0.16472   0.61790  -0.50732
  30        2PX         0.18522   0.30168   0.18350   0.36869  -0.11933
  31        2PY         0.38274   0.61517   0.01631   0.50342  -0.39571
  32        2PZ         0.00007   0.00001   0.00001   0.00006   0.00010
  33        3S          0.47161   1.25991   1.20270  -1.61376   1.15579
  34        3PX        -0.69459  -1.24634  -0.99520  -1.09041  -0.13805
  35        3PY        -1.48004  -2.66860  -0.26880  -1.16140   0.67910
  36        3PZ         0.00028   0.00046  -0.00016  -0.00015  -0.00026
  37 5   C  1S          0.02778  -0.00206  -0.01941  -0.01572   0.00566
  38        2S         -0.38732  -0.14151   0.40225   0.50311  -0.29017
  39        2PX         0.37213   0.16200  -0.05438  -0.21892   0.24954
  40        2PY        -0.62048  -0.40205   0.34826   0.15695  -0.24192
  41        2PZ         0.00067   0.00016  -0.00027  -0.00010   0.00027
  42        3S          0.48589  -1.13635  -1.43793  -1.70151   0.37401
  43        3PX        -1.19397  -0.72359  -0.38429   0.59481  -0.58876
  44        3PY         1.88552   1.84656  -0.71190   0.06755   0.06972
  45        3PZ        -0.00178  -0.00114   0.00042  -0.00002  -0.00033
  46 6   C  1S          0.00009   0.02543  -0.01609   0.00018   0.00521
  47        2S         -0.00200  -0.33560   0.59479  -0.00753  -0.16550
  48        2PX         0.00232   0.09249  -0.38520   0.00439   0.31663
  49        2PY         0.07293  -0.00033  -0.00210  -0.18152  -0.00013
  50        2PZ        -0.00001  -0.00010  -0.00017   0.00011   0.00008
  51        3S          0.00316   2.29043  -1.50480   0.01943  -0.07371
  52        3PX        -0.00663   0.74391   0.71640  -0.00756  -0.32036
  53        3PY        -0.32517   0.00274   0.01173   0.97620  -0.00007
  54        3PZ         0.00018  -0.00021   0.00032  -0.00062   0.00002
  55 7   H  1S         -0.36146   0.05598  -0.27197   0.19824   0.33562
  56        2S          1.68844  -0.94664   0.74396  -0.62305  -0.62610
  57 8   H  1S          0.16001  -0.15870   0.01640   0.37743   0.35188
  58        2S         -0.98671   1.56982   0.16104  -1.51744  -0.84813
  59 9   H  1S          0.00046   0.06871   0.38794  -0.00501   0.37583
  60        2S         -0.00271  -1.28238  -1.93130   0.02433  -1.00796
  61 10  H  1S         -0.16114  -0.15841   0.00682  -0.37767   0.35181
  62        2S          0.99164   1.56690   0.20032   1.51292  -0.84792
  63 11  H  1S          0.36153   0.05471  -0.27674  -0.19144   0.33550
  64        2S         -1.68667  -0.94015   0.75797   0.60407  -0.62547
  65 12  H  1S          0.00130   0.27476  -0.24827   0.00296   0.34405
  66        2S         -0.00539  -0.26091   0.89127  -0.01039  -0.54520
                          56        57        58        59        60
                           V         V         V         V         V
     Eigenvalues --     1.26369   1.27194   1.28177   1.36158   1.36261
   1 1   C  1S         -0.01076  -0.00577  -0.00869   0.01719   0.02306
   2        2S         -0.50321  -0.33607  -0.46480   0.79227   0.96170
   3        2PX         0.42999  -0.48450  -0.32041  -0.03868   0.10869
   4        2PY        -0.46907   0.15912  -0.00369   0.12867  -0.00372
   5        2PZ         0.00024  -0.00019   0.00013  -0.00007   0.00000
   6        3S          1.95073   1.25659   1.71715  -2.54982  -3.38409
   7        3PX        -2.65520   2.02659   1.80765   0.55406  -0.62590
   8        3PY         1.83430  -0.93612  -0.75521  -0.57314   0.09663
   9        3PZ        -0.00088   0.00098  -0.00031   0.00064  -0.00033
  10 2   C  1S         -0.00935   0.00906  -0.00654   0.01119  -0.02650
  11        2S         -0.38782   0.33966  -0.34255   0.44536  -1.19657
  12        2PX         0.25213  -0.51047  -0.48215   0.14422   0.10471
  13        2PY        -0.09130  -0.07127  -0.47212   0.09100  -0.08597
  14        2PZ         0.00012  -0.00001   0.00002   0.00009  -0.00011
  15        3S          1.60739  -1.37188   1.33632  -1.64154   3.89112
  16        3PX        -1.27512   1.94221   2.96057  -0.81309  -0.55096
  17        3PY        -0.33403   0.81771   2.05071  -0.62889   0.18235
  18        3PZ         0.00007  -0.00061   0.00047  -0.00041   0.00086
  19 3   C  1S         -0.00003   0.01451  -0.00007  -0.02846   0.00161
  20        2S         -0.00133   0.53944   0.00103  -1.27620   0.07318
  21        2PX         0.00032  -0.36363  -0.00305   0.12612  -0.00711
  22        2PY        -0.03257   0.00556  -0.82735  -0.00949  -0.19577
  23        2PZ         0.00010  -0.00040   0.00039   0.00014   0.00010
  24        3S          0.00548  -2.29421  -0.00960   4.18191  -0.24572
  25        3PX        -0.00095   0.61529   0.00451  -0.50606   0.02816
  26        3PY        -0.37090  -0.03058   4.32275   0.05614   1.16181
  27        3PZ        -0.00022   0.00133  -0.00202  -0.00055  -0.00077
  28 4   C  1S          0.00931   0.00884   0.00687   0.01416   0.02507
  29        2S          0.38775   0.33252   0.35016   0.57897   1.13834
  30        2PX        -0.25126  -0.51761   0.47558   0.12913  -0.12161
  31        2PY        -0.09151   0.07722  -0.46999  -0.09920  -0.07400
  32        2PZ        -0.00018  -0.00018   0.00056   0.00017   0.00002
  33        3S         -1.60760  -1.34781  -1.36203  -2.06426  -3.68440
  34        3PX         1.27013   1.98249  -2.93582  -0.73062   0.64656
  35        3PY        -0.33119  -0.84578   2.03987   0.64025   0.10268
  36        3PZ         0.00130   0.00085  -0.00303  -0.00091  -0.00006
  37 5   C  1S          0.01088  -0.00573   0.00859   0.01440  -0.02489
  38        2S          0.50523  -0.33881   0.46208   0.67596  -1.04679
  39        2PX        -0.42931  -0.48993   0.31410  -0.05070  -0.10473
  40        2PY        -0.46812  -0.15965  -0.00633  -0.12863   0.00990
  41        2PZ         0.00039  -0.00009   0.00008   0.00012  -0.00008
  42        3S         -1.95637   1.26746  -1.70571  -2.13243   3.65965
  43        3PX         2.65220   2.05423  -1.77839   0.62171   0.56548
  44        3PY         1.83241   0.94945  -0.74014   0.58332   0.03725
  45        3PZ        -0.00145   0.00024   0.00022  -0.00028   0.00041
  46 6   C  1S         -0.00006  -0.01529  -0.00013  -0.02844   0.00164
  47        2S         -0.00011  -0.82338  -0.00742  -1.21693   0.06999
  48        2PX         0.00054  -0.24933  -0.00191  -0.08158   0.00508
  49        2PY        -0.83530  -0.00117   0.07184   0.00745   0.11996
  50        2PZ         0.00058   0.00012  -0.00012   0.00010  -0.00011
  51        3S         -0.00059   3.04855   0.02680   4.20537  -0.23613
  52        3PX        -0.00033   0.37846   0.00330   0.23678  -0.01509
  53        3PY         4.26329   0.01175  -1.02502  -0.05739  -0.94421
  54        3PZ        -0.00298  -0.00071   0.00110  -0.00056   0.00073
  55 7   H  1S         -0.27964  -0.12577  -0.21515   0.27231   0.34815
  56        2S          0.19272   0.11727   0.15418   0.12740   0.22252
  57 8   H  1S         -0.24761   0.25137  -0.17652   0.14307  -0.36107
  58        2S          0.28848  -0.24461   0.22509   0.10472  -0.16570
  59 9   H  1S         -0.00041   0.40473   0.00190  -0.35962   0.02173
  60        2S          0.00028  -0.54577  -0.00479  -0.16734   0.00978
  61 10  H  1S          0.24708   0.24877   0.18068   0.18112   0.34419
  62        2S         -0.28793  -0.24322  -0.22604   0.12272   0.15340
  63 11  H  1S          0.28022  -0.12754   0.21378   0.22827  -0.37848
  64        2S         -0.19191   0.12007  -0.15282   0.10006  -0.23644
  65 12  H  1S          0.00007  -0.36254  -0.00289  -0.46469   0.02569
  66        2S         -0.00076   0.20737   0.00115  -0.28677   0.01596
                          61        62        63        64        65
                           V         V         V         V         V
     Eigenvalues --     1.43638   1.43647   1.47625   1.71927   1.71938
   1 1   C  1S          0.00273   0.00011  -0.01294  -0.03094   0.01056
   2        2S         -0.20819   0.51365  -0.61308  -0.77791   0.26079
   3        2PX        -0.05708   0.21823  -0.03675  -0.05456   0.31679
   4        2PY        -0.22855   0.32705  -0.06809  -0.27234  -0.09037
   5        2PZ         0.00013  -0.00013   0.00000   0.00016   0.00025
   6        3S         -0.98205   1.04048   1.40212   3.01931  -1.03574
   7        3PX        -0.88991  -1.40461  -0.27763   1.78709  -0.62723
   8        3PY         1.36215  -0.80783  -0.61303   3.22543  -0.94425
   9        3PZ        -0.00078  -0.00001   0.00067  -0.00201  -0.00060
  10 2   C  1S         -0.00039  -0.00483   0.01739   0.02256   0.01937
  11        2S          0.28220   0.36450   0.76363   0.58872   0.51543
  12        2PX        -0.05437  -0.23319  -0.04648   0.10037  -0.30396
  13        2PY         0.22028   0.30688   0.08365   0.29591   0.04757
  14        2PZ        -0.00019  -0.00041   0.00017  -0.00037  -0.00025
  15        3S          0.60515   1.63289  -1.92184  -2.16455  -1.85256
  16        3PX        -0.97435   1.42425  -0.33442   1.32390   1.39467
  17        3PY        -1.47957  -0.59665   0.38480  -2.42454  -2.15541
  18        3PZ         0.00096   0.00191  -0.00134   0.00233   0.00224
  19 3   C  1S         -0.00558  -0.00014  -0.01973   0.00727  -0.02715
  20        2S          0.42703   0.00783  -0.83815   0.19573  -0.73453
  21        2PX        -0.43601  -0.00934   0.10143  -0.07358   0.27608
  22        2PY         0.00184  -0.08460   0.00063  -0.32626  -0.08715
  23        2PZ        -0.00011   0.00004   0.00005   0.00020   0.00028
  24        3S          1.83185   0.04481   2.20710  -0.68310   2.57331
  25        3PX         1.39494   0.03029   0.42862   0.95825  -3.59311
  26        3PY        -0.04237   1.93039  -0.00143   0.16246   0.04217
  27        3PZ         0.00001  -0.00104   0.00061   0.00005  -0.00257
  28 4   C  1S         -0.00054   0.00483   0.01737  -0.02922   0.00559
  29        2S          0.30140  -0.35070   0.76193  -0.76757   0.15303
  30        2PX        -0.06509   0.23095  -0.04693   0.06457  -0.31354
  31        2PY        -0.23412   0.29642  -0.08275   0.28028   0.10663
  32        2PZ         0.00013   0.00001   0.00012   0.00002  -0.00010
  33        3S          0.66669  -1.60761  -1.91708   2.80183  -0.52353
  34        3PX        -0.90546  -1.46836  -0.33480  -1.84794   0.54928
  35        3PY         1.50359  -0.52808  -0.38661  -3.17359   0.65864
  36        3PZ        -0.00126  -0.00084  -0.00044   0.00084  -0.00012
  37 5   C  1S          0.00264   0.00006  -0.01290   0.02159   0.02459
  38        2S         -0.18851  -0.51997  -0.61296   0.54521   0.61318
  39        2PX        -0.04777  -0.22080  -0.03731  -0.11042   0.30179
  40        2PY         0.21428   0.33645   0.06787  -0.28140  -0.05718
  41        2PZ        -0.00014  -0.00029  -0.00014   0.00020   0.00025
  42        3S         -0.92313  -1.09003   1.39919  -2.10865  -2.40073
  43        3PX        -0.94743   1.36663  -0.27728  -1.24054  -1.43533
  44        3PY        -1.32494  -0.86608   0.61310   2.32587   2.42400
  45        3PZ         0.00069   0.00100  -0.00023  -0.00193  -0.00293
  46 6   C  1S         -0.00040  -0.00005   0.01080   0.00876  -0.03291
  47        2S         -0.60181  -0.01516   0.53851   0.21561  -0.80841
  48        2PX        -0.46068  -0.01032   0.06549   0.06992  -0.26186
  49        2PY         0.00156  -0.06437  -0.00025   0.31897   0.08513
  50        2PZ        -0.00006   0.00006  -0.00006  -0.00014  -0.00008
  51        3S         -1.21325  -0.02050  -1.16941  -0.86530   3.23924
  52        3PX         1.63037   0.03577   0.76520  -1.00422   3.76467
  53        3PY        -0.03594   1.57525   0.00070  -0.05878  -0.01704
  54        3PZ         0.00045  -0.00114   0.00006  -0.00016   0.00056
  55 7   H  1S          0.28951  -0.46912  -0.45985   0.62893  -0.17913
  56        2S          0.32255  -0.53973  -0.35925   1.04354  -0.30425
  57 8   H  1S         -0.27898  -0.49443   0.47910  -0.48661  -0.47145
  58        2S         -0.30043  -0.52720   0.34366  -0.78170  -0.74847
[...]
  59 9   H  1S         -0.00021   0.00000  -0.00002  -0.00642   0.00258
  60        2S         -0.00225   0.00000  -0.00095  -0.00752   0.00013
  61 10  H  1S          0.07039   0.00000   0.03119   0.02010   0.07022
  62        2S          0.03222   0.00000   0.01379   0.01287   0.04558
  63 11  H  1S         -0.00012   0.00000   0.00064   0.00034  -0.00405
  64        2S         -0.00093   0.00000   0.00083  -0.00409  -0.00521
  65 12  H  1S          0.00000   0.00000  -0.00002   0.00011  -0.00005
  66        2S          0.00003   0.00000   0.00008   0.00184   0.00010
                          36        37        38        39        40
  36        3PZ         0.17514
  37 5   C  1S          0.00000   2.06272
  38        2S          0.00000  -0.02350   0.32073
  39        2PX         0.00000   0.00000   0.00000   0.41397
  40        2PY         0.00000   0.00000   0.00000   0.00000   0.39938
  41        2PZ         0.03138   0.00000   0.00000   0.00000   0.00000
  42        3S          0.00000  -0.02876   0.18492   0.00000   0.00000
  43        3PX         0.00000   0.00000   0.00000   0.09443   0.00000
  44        3PY         0.00000   0.00000   0.00000   0.00000   0.10629
  45        3PZ         0.06196   0.00000   0.00000   0.00000   0.00000
  46 6   C  1S          0.00000   0.00000  -0.00056  -0.00069  -0.00203
  47        2S          0.00000  -0.00056   0.01157   0.01033   0.03076
  48        2PX         0.00000  -0.00066   0.01010   0.00025   0.02449
  49        2PY         0.00000  -0.00202   0.03045   0.02637   0.04897
  50        2PZ        -0.00131   0.00000   0.00000   0.00000   0.00000
  51        3S          0.00000  -0.00035   0.01684   0.01037   0.02081
  52        3PX         0.00000  -0.00085   0.01353  -0.00775   0.00413
  53        3PY         0.00000  -0.00082   0.01142   0.00978   0.00784
  54        3PZ        -0.00778   0.00000   0.00000   0.00000   0.00000
  55 7   H  1S          0.00000   0.00000   0.00000   0.00000   0.00000
  56        2S          0.00000   0.00000   0.00007   0.00002   0.00032
  57 8   H  1S          0.00000   0.00000   0.00000   0.00000   0.00000
  58        2S          0.00000   0.00000   0.00001   0.00000   0.00000
  59 9   H  1S          0.00000   0.00000   0.00000   0.00000   0.00000
  60        2S          0.00000   0.00000   0.00005   0.00024   0.00003
  61 10  H  1S          0.00000   0.00000  -0.00018  -0.00055  -0.00011
  62        2S          0.00000   0.00012  -0.00170  -0.00538  -0.00062
  63 11  H  1S          0.00000  -0.00184   0.03099   0.02322   0.06997
  64        2S          0.00000  -0.00119   0.01376   0.01265   0.03803
  65 12  H  1S          0.00000   0.00000  -0.00018  -0.00045  -0.00022
  66        2S          0.00000   0.00015  -0.00222  -0.00482  -0.00301
                          41        42        43        44        45
  41        2PZ         0.29557
  42        3S          0.00000   0.17959
  43        3PX         0.00000   0.00000   0.08282
  44        3PY         0.00000   0.00000   0.00000   0.11106
  45        3PZ         0.13561   0.00000   0.00000   0.00000   0.19473
  46 6   C  1S          0.00000  -0.00036   0.00004  -0.00174   0.00000
  47        2S          0.00000   0.01670  -0.00132   0.02631   0.00000
  48        2PX         0.00000   0.00365  -0.00569   0.00223   0.00000
  49        2PY         0.00000   0.02277   0.00700   0.00842   0.00000
  50        2PZ         0.01891   0.00000   0.00000   0.00000   0.03192
  51        3S          0.00000   0.01566   0.00309   0.01366   0.00000
  52        3PX         0.00000   0.00339  -0.01958  -0.00771   0.00000
  53        3PY         0.00000   0.00906   0.00322  -0.00290   0.00000
  54        3PZ         0.03345   0.00000   0.00000   0.00000   0.06170
  55 7   H  1S          0.00000  -0.00001   0.00003   0.00004   0.00000
  56        2S          0.00000   0.00014   0.00014   0.00161   0.00000
  57 8   H  1S          0.00000   0.00001   0.00001   0.00002   0.00000
  58        2S          0.00000   0.00021  -0.00003  -0.00007   0.00000
  59 9   H  1S          0.00000  -0.00001   0.00014  -0.00006   0.00000
  60        2S          0.00000   0.00016   0.00154   0.00000   0.00000
  61 10  H  1S          0.00000  -0.00054  -0.00099  -0.00392   0.00000
  62        2S          0.00000  -0.00223  -0.00569  -0.00410   0.00000
  63 11  H  1S          0.00000   0.02704   0.02382   0.06106   0.00000
  64        2S          0.00000   0.01005   0.01858   0.04697   0.00000
  65 12  H  1S          0.00000   0.00004  -0.00686   0.00205   0.00000
  66        2S          0.00000  -0.00077  -0.01248   0.00014   0.00000
                          46        47        48        49        50
  46 6   C  1S          2.06265
  47        2S         -0.02342   0.31932
  48        2PX         0.00000   0.00000   0.39007
  49        2PY         0.00000   0.00000   0.00000   0.41803
  50        2PZ         0.00000   0.00000   0.00000   0.00000   0.30055
  51        3S         -0.02879   0.18529   0.00000   0.00000   0.00000
  52        3PX         0.00000   0.00000   0.11685   0.00000   0.00000
  53        3PY         0.00000   0.00000   0.00000   0.08160   0.00000
  54        3PZ         0.00000   0.00000   0.00000   0.00000   0.14028
  55 7   H  1S          0.00000  -0.00018  -0.00001  -0.00067   0.00000
  56        2S          0.00014  -0.00209  -0.00013  -0.00710   0.00000
  57 8   H  1S          0.00000   0.00000   0.00000   0.00000   0.00000
  58        2S          0.00000   0.00006   0.00015   0.00013   0.00000
  59 9   H  1S          0.00000   0.00000   0.00000   0.00000   0.00000
  60        2S          0.00000   0.00001   0.00000   0.00000   0.00000
  61 10  H  1S          0.00000   0.00000   0.00000   0.00000   0.00000
  62        2S          0.00000   0.00005   0.00015   0.00013   0.00000
  63 11  H  1S          0.00000  -0.00018  -0.00001  -0.00066   0.00000
  64        2S          0.00014  -0.00209  -0.00013  -0.00710   0.00000
  65 12  H  1S         -0.00182   0.03056   0.09276   0.00000   0.00000
  66        2S         -0.00125   0.01438   0.05468   0.00000   0.00000
                          51        52        53        54        55
  51        3S          0.17996
  52        3PX         0.00000   0.13206
  53        3PY         0.00000   0.00000   0.05438
  54        3PZ         0.00000   0.00000   0.00000   0.20508
  55 7   H  1S         -0.00053   0.00047  -0.00591   0.00000   0.21756
  56        2S         -0.00242   0.00043  -0.01298   0.00000   0.09254
  57 8   H  1S         -0.00001  -0.00006   0.00013   0.00000  -0.00001
  58        2S          0.00018   0.00062   0.00094   0.00000  -0.00013
  59 9   H  1S          0.00002   0.00002   0.00000   0.00000   0.00000
  60        2S          0.00021  -0.00007   0.00000   0.00000   0.00000
  61 10  H  1S         -0.00001  -0.00006   0.00013   0.00000   0.00000
  62        2S          0.00017   0.00062   0.00094   0.00000   0.00000
  63 11  H  1S         -0.00054   0.00047  -0.00592   0.00000   0.00000
  64        2S         -0.00243   0.00043  -0.01298   0.00000   0.00000
  65 12  H  1S          0.02483   0.08168   0.00000   0.00000  -0.00001
  66        2S          0.00724   0.06842   0.00000   0.00000  -0.00025
                          56        57        58        59        60
  56        2S          0.10088
  57 8   H  1S         -0.00022   0.21373
  58        2S          0.00001   0.07629   0.07025
  59 9   H  1S          0.00000  -0.00001  -0.00015   0.21171
  60        2S         -0.00009  -0.00010   0.00011   0.06874   0.05788
  61 10  H  1S          0.00000   0.00000   0.00000  -0.00001  -0.00010
  62        2S          0.00001   0.00000  -0.00009  -0.00015   0.00011
  63 11  H  1S          0.00000   0.00000   0.00000   0.00000   0.00000
  64        2S         -0.00011   0.00000   0.00001   0.00000  -0.00009
  65 12  H  1S         -0.00021   0.00000   0.00000   0.00000   0.00000
  66        2S         -0.00018   0.00000  -0.00010   0.00000   0.00000
                          61        62        63        64        65
  61 10  H  1S          0.21372
  62        2S          0.07628   0.07023
  63 11  H  1S         -0.00001  -0.00013   0.21752
  64        2S         -0.00022   0.00001   0.09255   0.10092
  65 12  H  1S          0.00000   0.00000  -0.00001  -0.00021   0.21933
  66        2S          0.00000  -0.00010  -0.00025  -0.00018   0.10129
                          66
  66        2S          0.11966
     Gross orbital populations:
                           1
   1 1   C  1S          1.99772
   2        2S          0.69402
   3        2PX         0.75238
   4        2PY         0.72809
   5        2PZ         0.52983
   6        3S          0.48775
   7        3PX         0.22075
   8        3PY         0.30078
   9        3PZ         0.49184
  10 2   C  1S          1.99774
  11        2S          0.69789
  12        2PX         0.74800
  13        2PY         0.74683
  14        2PZ         0.51312
  15        3S          0.49491
  16        3PX         0.19039
  17        3PY         0.34552
  18        3PZ         0.46514
  19 3   C  1S          1.99775
  20        2S          0.69996
  21        2PX         0.74841
  22        2PY         0.75344
  23        2PZ         0.50453
  24        3S          0.49857
  25        3PX         0.40577
  26        3PY         0.13609
  27        3PZ         0.45187
  28 4   C  1S          1.99774
  29        2S          0.69787
  30        2PX         0.74809
  31        2PY         0.74662
  32        2PZ         0.51300
  33        3S          0.49505
  34        3PX         0.19041
  35        3PY         0.34564
  36        3PZ         0.46510
  37 5   C  1S          1.99772
  38        2S          0.69400
  39        2PX         0.75244
  40        2PY         0.72794
  41        2PZ         0.52990
  42        3S          0.48775
  43        3PX         0.22071
  44        3PY         0.30086
  45        3PZ         0.49190
  46 6   C  1S          1.99771
  47        2S          0.69221
  48        2PX         0.71288
  49        2PY         0.76027
  50        2PZ         0.53829
  51        3S          0.48419
  52        3PX         0.35542
  53        3PY         0.15740
  54        3PZ         0.50549
  55 7   H  1S          0.53339
  56        2S          0.29458
  57 8   H  1S          0.52557
  58        2S          0.24340
  59 9   H  1S          0.52147
  60        2S          0.21966
  61 10  H  1S          0.52554
  62        2S          0.24338
  63 11  H  1S          0.53332
  64        2S          0.29467
  65 12  H  1S          0.53710
  66        2S          0.32224
          Condensed to atoms (all electrons):
               1          2          3          4          5          6
     1  C    4.998431   0.511037  -0.056066  -0.032250  -0.055100   0.513966
     2  C    0.511037   4.985330   0.511469  -0.056364  -0.032240  -0.055483
     3  C   -0.056066   0.511469   4.978903   0.511162  -0.056084  -0.032447
     4  C   -0.032250  -0.056364   0.511162   4.985270   0.511357  -0.055464
     5  C   -0.055100  -0.032240  -0.056084   0.511357   4.998534   0.513599
     6  C    0.513966  -0.055483  -0.032447  -0.055464   0.513599   5.005737
     7  H    0.373117  -0.021305   0.002418   0.000082   0.002336  -0.030980
     8  H   -0.025933   0.372021  -0.017504   0.002211   0.000163   0.002134
     9  H    0.002080  -0.019722   0.369634  -0.019721   0.002079   0.000190
    10  H    0.000164   0.002210  -0.017530   0.372013  -0.025890   0.002130
    11  H    0.002335   0.000081   0.002418  -0.021284   0.373095  -0.030997
    12  H   -0.028604   0.002497   0.000023   0.002495  -0.028620   0.371481
               7          8          9         10         11         12
     1  C    0.373117  -0.025933   0.002080   0.000164   0.002335  -0.028604
     2  C   -0.021305   0.372021  -0.019722   0.002210   0.000081   0.002497
     3  C    0.002418  -0.017504   0.369634  -0.017530   0.002418   0.000023
     4  C    0.000082   0.002211  -0.019721   0.372013  -0.021284   0.002495
     5  C    0.002336   0.000163   0.002079  -0.025890   0.373095  -0.028620
     6  C   -0.030980   0.002134   0.000190   0.002130  -0.030997   0.371481
     7  H    0.503513  -0.000360  -0.000094   0.000005  -0.000112  -0.000653
     8  H   -0.000360   0.436572  -0.000150  -0.000089   0.000005  -0.000106
     9  H   -0.000094  -0.000150   0.407067  -0.000148  -0.000094   0.000005
    10  H    0.000005  -0.000089  -0.000148   0.436519  -0.000358  -0.000105
    11  H   -0.000112   0.000005  -0.000094  -0.000358   0.503549  -0.000653
    12  H   -0.000653  -0.000106   0.000005  -0.000105  -0.000653   0.541574
 Mulliken charges:
               1
     1  C   -0.203178
     2  C   -0.199531
     3  C   -0.196395
     4  C   -0.199507
     5  C   -0.203229
     6  C   -0.203865
     7  H    0.172033
     8  H    0.231036
     9  H    0.258876
    10  H    0.231080
    11  H    0.172014
    12  H    0.140665
 Sum of Mulliken charges =   0.00000
 Mulliken charges with hydrogens summed into heavy atoms:
               1
     1  C   -0.031145
     2  C    0.031504
     3  C    0.062481
     4  C    0.031573
     5  C   -0.031215
     6  C   -0.063199
 Electronic spatial extent (au):  <R**2>=            776.2251
 Charge=              0.0000 electrons
 Dipole moment (field-independent basis, Debye):
    X=              1.7753    Y=             -0.0002    Z=              0.0012  Tot=              1.7753
 Quadrupole moment (field-independent basis, Debye-Ang):
   XX=            -31.6721   YY=            -31.7922   ZZ=            -40.4848
   XY=              2.5747   XZ=              0.0028   YZ=             -0.0043
 Traceless Quadrupole moment (field-independent basis, Debye-Ang):
   XX=              2.9776   YY=              2.8575   ZZ=             -5.8351
   XY=              2.5747   XZ=              0.0028   YZ=             -0.0043
 Octapole moment (field-independent basis, Debye-Ang**2):
  XXX=              5.1980  YYY=           -138.2383  ZZZ=              0.1250  XYY=              5.4606
  XXY=            -45.8979  XXZ=              0.0396  XZZ=             -0.9319  YZZ=            -58.6770
  YYZ=              0.0208  XYZ=              0.0029
 Hexadecapole moment (field-independent basis, Debye-Ang**3):
 XXXX=           -267.2543 YYYY=           -668.7065 ZZZZ=            -43.9387 XXXY=              7.5414
 XXXZ=             -0.0151 YYYX=             12.9341 YYYZ=              0.1649 ZZZX=             -0.0332
 ZZZY=              0.2701 XXYY=           -155.6385 XXZZ=            -63.2226 YYZZ=           -148.2433
 XXYZ=              0.0719 YYXZ=              0.0020 ZZXY=             -1.3490
 N-N= 2.029918701540D+02 E-N=-9.427949509567D+02  KE= 2.305568510876D+02
 Orbital energies and kinetic energies (alpha):
                                 1                 2
   1         O               -11.248583         16.017685
   2         O               -11.243999         16.019371
   3         O               -11.243840         16.022529
   4         O               -11.235149         16.018758
   5         O               -11.234991         16.020742
   6         O               -11.230497         16.023174
   7         O                -1.151504          1.466877
   8         O                -1.012605          1.586205
   9         O                -1.012421          1.585566
  10         O                -0.818170          1.442829
  11         O                -0.817951          1.444082
  12         O                -0.704659          0.917236
  13         O                -0.631029          1.248992
  14         O                -0.616319          1.444987
  15         O                -0.582162          1.170917
  16         O                -0.581455          1.169982
  17         O                -0.499641          0.880858
  18         O                -0.483628          1.359892
  19         O                -0.482995          1.360274
  20         O                -0.333413          1.038946
  21         O                -0.332614          1.038524
  22         V                 0.145892          1.181788
  23         V                 0.146622          1.181658
  24         V                 0.219443          0.807333
  25         V                 0.280682          0.851323
  26         V                 0.286648          0.870850
  27         V                 0.312833          0.927410
  28         V                 0.334441          1.018679
  29         V                 0.356428          1.028098
  30         V                 0.362530          1.396948
  31         V                 0.467035          1.315376
  32         V                 0.468414          1.309348
  33         V                 0.499118          1.338546
  34         V                 0.499513          1.338772
  35         V                 0.681965          1.495600
  36         V                 0.753329          2.062594
  37         V                 0.770674          2.891648
  38         V                 0.772769          1.568589
  39         V                 0.782321          1.767121
  40         V                 0.839053          1.632425
  41         V                 0.844150          2.179156
  42         V                 0.845131          2.177661
  43         V                 0.872940          2.652617
  44         V                 0.873003          2.657955
  45         V                 0.899322          2.129906
  46         V                 0.901216          2.106583
  47         V                 0.915182          2.402036
  48         V                 0.916616          2.399198
  49         V                 0.992797          2.485096
  50         V                 1.112636          3.071005
  51         V                 1.120572          2.976561
  52         V                 1.138846          3.112331
  53         V                 1.156013          2.933710
  54         V                 1.157817          2.918898
  55         V                 1.233355          2.889604
  56         V                 1.263688          3.230478
  57         V                 1.271942          2.985323
  58         V                 1.281773          3.311248
  59         V                 1.361579          2.423803
  60         V                 1.362605          2.420146
  61         V                 1.436375          2.369547
  62         V                 1.436472          2.368778
  63         V                 1.476251          2.498670
  64         V                 1.719267          2.645419
  65         V                 1.719383          2.645040
  66         V                 2.159210          2.956157
 Total kinetic energy from orbitals= 2.305568510876D+02
 Unable to Open any file for archive entry.
 1\1\GINC-MEDUSA\SP\RHF\6-31G\C6H6\DBWY\29-Sep-2015\0\\# hf/6-31G gfinp
 ut pop=full nosymm Field=X-100\\Benzene 6-31G\\0,1\C,0,-0.64863549,0.2
 4130784,-0.00045\C,0,0.74652451,0.24130784,-0.00045\C,0,1.44406251,1.4
 4905884,-0.00045\C,0,0.74640851,2.65756784,-0.001649\C,0,-0.64841649,2
 .65748984,-0.002128\C,0,-1.34601749,1.44928384,-0.001132\H,0,-1.198394
 49,-0.71100916,0.\H,0,1.29603251,-0.71120516,0.000865\H,0,2.54374251,1
 .44913884,0.000184\H,0,1.29660851,3.60971084,-0.001708\H,0,-1.19853849
 ,3.60977084,-0.003081\H,0,-2.44562149,1.44946684,-0.001312\\Version=ES
 64L-GDVRevI.01+\HF=-230.6248042\RMSD=3.465e-09\Dipole=0.6984653,-0.000
 0634,0.0004877\Quadrupole=2.2138057,2.1244762,-4.3382819,1.9142062,0.0
 020577,-0.0032008\PG=C01 [X(C6H6)]\\@
 The archive entry for this job was punched.


 THERE ARE PEOPLE SO ADDICTED TO EXAGERATING THEY
 CAN'T TELL THE TRUTH WITHOUT LYING. -- FORTUNE COOKIE
 Job cpu time:       0 days  0 hours  0 minutes  1.1 seconds.
 Elapsed time:       0 days  0 hours  0 minutes  0.9 seconds.
 File lengths (MBytes):  RWF=      5 Int=      0 D2E=      0 Chk=      1 Scr=      1
 Normal termination of Gaussian DV at Tue Sep 29 11:37:00 2015.
