 Entering Gaussian System, Link 0=gdv
 Input=benzene_cc-pVDZ_CIS.com
 Output=benzene_cc-pVDZ_CIS.log
 Initial command:
 /home/gauss/gdvi01p/gdv/l1.exe "/home/GauScr/Gau-2670.inp" -scrdir="/home/GauScr/"
 Entering Link 1 = /home/gauss/gdvi01p/gdv/l1.exe PID=      2671.
  
 Copyright (c) 1988,1990,1992,1993,1995,1998,2003,2009,2014,
            Gaussian, Inc.  All Rights Reserved.
  
 This is the private, development version of
 the Gaussian(R) DV system of programs. It is based on
 the Gaussian(R) 09 system (copyright 2009, Gaussian, Inc.),
 the Gaussian(R) 03 system (copyright 2003, Gaussian, Inc.),
 the Gaussian(R) 98 system (copyright 1998, Gaussian, Inc.),
 the Gaussian(R) 94 system (copyright 1995, Gaussian, Inc.),
 the Gaussian 92(TM) system (copyright 1992, Gaussian, Inc.),
 the Gaussian 90(TM) system (copyright 1990, Gaussian, Inc.),
 the Gaussian 88(TM) system (copyright 1988, Gaussian, Inc.),
 the Gaussian 86(TM) system (copyright 1986, Carnegie Mellon
 University), and the Gaussian 82(TM) system (copyright 1983,
 Carnegie Mellon University). Gaussian is a federally registered
 trademark of Gaussian, Inc.
  
 This software contains proprietary and confidential information,
 including trade secrets, belonging to Gaussian, Inc.
  
 This software is provided under written license and may be
 used, copied, transmitted, or stored only in accord with that
 written license.
  
 The following legend is applicable only to US Government
 contracts under FAR:
  
                    RESTRICTED RIGHTS LEGEND
  
 Use, reproduction and disclosure by the US Government is
 subject to restrictions as set forth in subparagraphs (a)
 and (c) of the Commercial Computer Software - Restricted
 Rights clause in FAR 52.227-19.
  
 Gaussian, Inc.
 340 Quinnipiac St., Bldg. 40, Wallingford CT 06492
  
  
 ---------------------------------------------------------------
 Warning -- This program may not be used in any manner that
 competes with the business of Gaussian, Inc. or will provide
 assistance to any competitor of Gaussian, Inc.  The licensee
 of this program is prohibited from giving any competitor of
 Gaussian, Inc. access to this program.  By using this program,
 the user acknowledges that Gaussian, Inc. is engaged in the
 business of creating and licensing software in the field of
 computational chemistry and represents and warrants to the
 licensee that it is not a competitor of Gaussian, Inc. and that
 it will not use this program in any manner prohibited above.
 ---------------------------------------------------------------
  

 Cite this work as:
 Gaussian Development Version, Revision I.01+,
 M. J. Frisch, G. W. Trucks, H. B. Schlegel, G. E. Scuseria, 
 M. A. Robb, J. R. Cheeseman, G. Scalmani, V. Barone, B. Mennucci, 
 G. A. Petersson, H. Nakatsuji, M. Caricato, X. Li, H. P. Hratchian, 
 A. F. Izmaylov, J. Bloino, B. G. Janesko, F. Lipparini, G. Zheng, 
 J. L. Sonnenberg, W. Liang, M. Hada, M. Ehara, K. Toyota, R. Fukuda, 
 J. Hasegawa, M. Ishida, T. Nakajima, Y. Honda, O. Kitao, H. Nakai, 
 T. Vreven, J. A. Montgomery, Jr., J. E. Peralta, F. Ogliaro, 
 M. Bearpark, J. J. Heyd, E. Brothers, K. N. Kudin, V. N. Staroverov, 
 T. Keith, R. Kobayashi, J. Normand, K. Raghavachari, A. Rendell, 
 J. C. Burant, S. S. Iyengar, J. Tomasi, M. Cossi, N. Rega, 
 J. M. Millam, M. Klene, J. E. Knox, J. B. Cross, V. Bakken, 
 C. Adamo, J. Jaramillo, R. Gomperts, R. E. Stratmann, O. Yazyev, 
 A. J. Austin, R. Cammi, C. Pomelli, J. W. Ochterski, R. L. Martin, 
 K. Morokuma, V. G. Zakrzewski, G. A. Voth, P. Salvador, 
 J. J. Dannenberg, S. Dapprich, P. V. Parandekar, N. J. Mayhall, 
 A. D. Daniels, O. Farkas, J. B. Foresman, J. V. Ortiz, 
 J. Cioslowski, and D. J. Fox, Gaussian, Inc., Wallingford CT, 2010.
 
 *******************************************
 Gaussian DV:  ES64L-GDVRevI.01+ 11-Sep-2014
                 24-Sep-2015 
 *******************************************
 ------------------------------------------------------------------
 # hf/cc-pVDZ gfinput pop=full nosymm cis(full,nstates=12,50-50) 6D
 ------------------------------------------------------------------
 1/38=1,172=1/1;
 2/12=2,15=1,17=6,18=5,40=1/2;
 3/5=16,8=2,11=9,24=10,25=1,30=1/1,2,8,3;
 4//1;
 5/5=2,38=5/2;
 8/6=1,10=90,108=12/1,4;
 9/41=12,42=3,48=2/14;
 6/7=3/1;
 99/5=1,9=1/99;
 ---------------
 Benzene cc-pVDZ
 ---------------
 Symbolic Z-matrix:
 Charge =  0 Multiplicity = 1
 C                    -0.64864   0.24131  -0.00045 
 C                     0.74652   0.24131  -0.00045 
 C                     1.44406   1.44906  -0.00045 
 C                     0.74641   2.65757  -0.00165 
 C                    -0.64842   2.65749  -0.00213 
 C                    -1.34602   1.44928  -0.00113 
 H                    -1.19839  -0.71101   0. 
 H                     1.29603  -0.71121   0.00087 
 H                     2.54374   1.44914   0.00018 
 H                     1.29661   3.60971  -0.00171 
 H                    -1.19854   3.60977  -0.00308 
 H                    -2.44562   1.44947  -0.00131 
 
                          Input orientation:                          
 ---------------------------------------------------------------------
 Center     Atomic      Atomic             Coordinates (Angstroms)
 Number     Number       Type             X           Y           Z
 ---------------------------------------------------------------------
      1          6           0       -0.648635    0.241308   -0.000450
      2          6           0        0.746525    0.241308   -0.000450
      3          6           0        1.444063    1.449059   -0.000450
      4          6           0        0.746409    2.657568   -0.001649
      5          6           0       -0.648416    2.657490   -0.002128
      6          6           0       -1.346017    1.449284   -0.001132
      7          1           0       -1.198394   -0.711009    0.000000
      8          1           0        1.296033   -0.711205    0.000865
      9          1           0        2.543743    1.449139    0.000184
     10          1           0        1.296609    3.609711   -0.001708
     11          1           0       -1.198538    3.609771   -0.003081
     12          1           0       -2.445621    1.449467   -0.001312
 ---------------------------------------------------------------------
                    Distance matrix (angstroms):
                    1          2          3          4          5
     1  C    0.000000
     2  C    1.395160   0.000000
     3  C    2.416205   1.394712   0.000000
     4  C    2.790065   2.416260   1.395427   0.000000
     5  C    2.416183   2.789946   2.416356   1.394825   0.000000
     6  C    1.394829   2.416183   2.790080   2.416236   1.395138
     7  H    1.099610   2.165553   3.412986   3.889675   3.413102
     8  H    2.165414   1.099655   2.165330   3.413316   3.889601
     9  H    3.413229   2.165375   1.099680   2.165806   3.413209
    10  H    3.889745   3.413024   2.165678   1.099680   2.165606
    11  H    3.413055   3.889707   3.413506   2.165528   1.099761
    12  H    2.165365   3.413128   3.889684   3.412999   2.165471
                    6          7          8          9         10
     6  C    0.000000
     7  H    2.165331   0.000000
     8  H    3.412938   2.494427   0.000000
     9  H    3.889760   4.320860   2.494768   0.000000
    10  H    3.413344   4.989355   4.320917   2.494678   0.000000
    11  H    2.165516   4.320781   4.989362   4.321228   2.495147
    12  H    1.099604   2.494641   4.320704   4.989364   4.320988
                   11         12
    11  H    0.000000
    12  H    2.494420   0.000000
 Symmetry turned off by external request.
 Stoichiometry    C6H6
 Framework group  C1[X(C6H6)]
 Deg. of freedom    30
 Full point group                 C1      NOp   1
 Rotational constants (GHZ):      5.6865650      5.6862640      2.8432074
 Standard basis: CC-pVDZ (6D, 7F)
 AO basis set in the form of general basis input (Overlap normalization):
      1 0
 S   7 1.00       0.000000000000
      0.6665000000D+04  0.6935163173D-03
      0.1000000000D+04  0.5341502433D-02
      0.2280000000D+03  0.2713667141D-01
      0.6471000000D+02  0.1019923853D+00
      0.2106000000D+02  0.2755086365D+00
      0.7495000000D+01  0.4510864331D+00
      0.2797000000D+01  0.2875657448D+00
 S   7 1.00       0.000000000000
      0.6665000000D+04  0.7733547404D-05
      0.2280000000D+03  0.2780721367D-03
      0.6471000000D+02 -0.2578756542D-02
      0.2106000000D+02 -0.8950876838D-02
      0.7495000000D+01 -0.1060588547D+00
      0.2797000000D+01 -0.1315176856D+00
      0.5215000000D+00  0.1099486598D+01
 S   1 1.00       0.000000000000
      0.1596000000D+00  0.1000000000D+01
 P   3 1.00       0.000000000000
      0.9439000000D+01  0.5697925159D-01
      0.2002000000D+01  0.3132072115D+00
      0.5456000000D+00  0.7603767417D+00
 P   1 1.00       0.000000000000
      0.1517000000D+00  0.1000000000D+01
 D   1 1.00       0.000000000000
      0.5500000000D+00  0.1000000000D+01
 ****
      2 0
 S   7 1.00       0.000000000000
      0.6665000000D+04  0.6935163173D-03
      0.1000000000D+04  0.5341502433D-02
      0.2280000000D+03  0.2713667141D-01
      0.6471000000D+02  0.1019923853D+00
      0.2106000000D+02  0.2755086365D+00
      0.7495000000D+01  0.4510864331D+00
      0.2797000000D+01  0.2875657448D+00
 S   7 1.00       0.000000000000
      0.6665000000D+04  0.7733547404D-05
      0.2280000000D+03  0.2780721367D-03
      0.6471000000D+02 -0.2578756542D-02
      0.2106000000D+02 -0.8950876838D-02
      0.7495000000D+01 -0.1060588547D+00
      0.2797000000D+01 -0.1315176856D+00
      0.5215000000D+00  0.1099486598D+01
 S   1 1.00       0.000000000000
      0.1596000000D+00  0.1000000000D+01
 P   3 1.00       0.000000000000
      0.9439000000D+01  0.5697925159D-01
      0.2002000000D+01  0.3132072115D+00
      0.5456000000D+00  0.7603767417D+00
 P   1 1.00       0.000000000000
      0.1517000000D+00  0.1000000000D+01
 D   1 1.00       0.000000000000
      0.5500000000D+00  0.1000000000D+01
 ****
      3 0
 S   7 1.00       0.000000000000
      0.6665000000D+04  0.6935163173D-03
      0.1000000000D+04  0.5341502433D-02
      0.2280000000D+03  0.2713667141D-01
      0.6471000000D+02  0.1019923853D+00
      0.2106000000D+02  0.2755086365D+00
      0.7495000000D+01  0.4510864331D+00
      0.2797000000D+01  0.2875657448D+00
 S   7 1.00       0.000000000000
      0.6665000000D+04  0.7733547404D-05
      0.2280000000D+03  0.2780721367D-03
      0.6471000000D+02 -0.2578756542D-02
      0.2106000000D+02 -0.8950876838D-02
      0.7495000000D+01 -0.1060588547D+00
      0.2797000000D+01 -0.1315176856D+00
      0.5215000000D+00  0.1099486598D+01
 S   1 1.00       0.000000000000
      0.1596000000D+00  0.1000000000D+01
 P   3 1.00       0.000000000000
      0.9439000000D+01  0.5697925159D-01
      0.2002000000D+01  0.3132072115D+00
      0.5456000000D+00  0.7603767417D+00
 P   1 1.00       0.000000000000
      0.1517000000D+00  0.1000000000D+01
 D   1 1.00       0.000000000000
      0.5500000000D+00  0.1000000000D+01
 ****
      4 0
 S   7 1.00       0.000000000000
      0.6665000000D+04  0.6935163173D-03
      0.1000000000D+04  0.5341502433D-02
      0.2280000000D+03  0.2713667141D-01
      0.6471000000D+02  0.1019923853D+00
      0.2106000000D+02  0.2755086365D+00
      0.7495000000D+01  0.4510864331D+00
      0.2797000000D+01  0.2875657448D+00
 S   7 1.00       0.000000000000
      0.6665000000D+04  0.7733547404D-05
      0.2280000000D+03  0.2780721367D-03
      0.6471000000D+02 -0.2578756542D-02
      0.2106000000D+02 -0.8950876838D-02
      0.7495000000D+01 -0.1060588547D+00
      0.2797000000D+01 -0.1315176856D+00
      0.5215000000D+00  0.1099486598D+01
 S   1 1.00       0.000000000000
      0.1596000000D+00  0.1000000000D+01
 P   3 1.00       0.000000000000
      0.9439000000D+01  0.5697925159D-01
      0.2002000000D+01  0.3132072115D+00
      0.5456000000D+00  0.7603767417D+00
 P   1 1.00       0.000000000000
      0.1517000000D+00  0.1000000000D+01
 D   1 1.00       0.000000000000
      0.5500000000D+00  0.1000000000D+01
 ****
      5 0
 S   7 1.00       0.000000000000
      0.6665000000D+04  0.6935163173D-03
      0.1000000000D+04  0.5341502433D-02
      0.2280000000D+03  0.2713667141D-01
      0.6471000000D+02  0.1019923853D+00
      0.2106000000D+02  0.2755086365D+00
      0.7495000000D+01  0.4510864331D+00
      0.2797000000D+01  0.2875657448D+00
 S   7 1.00       0.000000000000
      0.6665000000D+04  0.7733547404D-05
      0.2280000000D+03  0.2780721367D-03
      0.6471000000D+02 -0.2578756542D-02
      0.2106000000D+02 -0.8950876838D-02
      0.7495000000D+01 -0.1060588547D+00
      0.2797000000D+01 -0.1315176856D+00
      0.5215000000D+00  0.1099486598D+01
 S   1 1.00       0.000000000000
      0.1596000000D+00  0.1000000000D+01
 P   3 1.00       0.000000000000
      0.9439000000D+01  0.5697925159D-01
      0.2002000000D+01  0.3132072115D+00
      0.5456000000D+00  0.7603767417D+00
 P   1 1.00       0.000000000000
      0.1517000000D+00  0.1000000000D+01
 D   1 1.00       0.000000000000
      0.5500000000D+00  0.1000000000D+01
 ****
      6 0
 S   7 1.00       0.000000000000
      0.6665000000D+04  0.6935163173D-03
      0.1000000000D+04  0.5341502433D-02
      0.2280000000D+03  0.2713667141D-01
      0.6471000000D+02  0.1019923853D+00
      0.2106000000D+02  0.2755086365D+00
      0.7495000000D+01  0.4510864331D+00
      0.2797000000D+01  0.2875657448D+00
 S   7 1.00       0.000000000000
      0.6665000000D+04  0.7733547404D-05
      0.2280000000D+03  0.2780721367D-03
      0.6471000000D+02 -0.2578756542D-02
      0.2106000000D+02 -0.8950876838D-02
      0.7495000000D+01 -0.1060588547D+00
      0.2797000000D+01 -0.1315176856D+00
      0.5215000000D+00  0.1099486598D+01
 S   1 1.00       0.000000000000
      0.1596000000D+00  0.1000000000D+01
 P   3 1.00       0.000000000000
      0.9439000000D+01  0.5697925159D-01
      0.2002000000D+01  0.3132072115D+00
      0.5456000000D+00  0.7603767417D+00
 P   1 1.00       0.000000000000
      0.1517000000D+00  0.1000000000D+01
 D   1 1.00       0.000000000000
      0.5500000000D+00  0.1000000000D+01
 ****
      7 0
 S   3 1.00       0.000000000000
      0.1301000000D+02  0.3349872639D-01
      0.1962000000D+01  0.2348008012D+00
      0.4446000000D+00  0.8136829579D+00
 S   1 1.00       0.000000000000
      0.1220000000D+00  0.1000000000D+01
 P   1 1.00       0.000000000000
      0.7270000000D+00  0.1000000000D+01
 ****
      8 0
 S   3 1.00       0.000000000000
      0.1301000000D+02  0.3349872639D-01
      0.1962000000D+01  0.2348008012D+00
      0.4446000000D+00  0.8136829579D+00
 S   1 1.00       0.000000000000
      0.1220000000D+00  0.1000000000D+01
 P   1 1.00       0.000000000000
      0.7270000000D+00  0.1000000000D+01
 ****
      9 0
 S   3 1.00       0.000000000000
      0.1301000000D+02  0.3349872639D-01
      0.1962000000D+01  0.2348008012D+00
      0.4446000000D+00  0.8136829579D+00
 S   1 1.00       0.000000000000
      0.1220000000D+00  0.1000000000D+01
 P   1 1.00       0.000000000000
      0.7270000000D+00  0.1000000000D+01
 ****
     10 0
 S   3 1.00       0.000000000000
      0.1301000000D+02  0.3349872639D-01
      0.1962000000D+01  0.2348008012D+00
      0.4446000000D+00  0.8136829579D+00
 S   1 1.00       0.000000000000
      0.1220000000D+00  0.1000000000D+01
 P   1 1.00       0.000000000000
      0.7270000000D+00  0.1000000000D+01
 ****
     11 0
 S   3 1.00       0.000000000000
      0.1301000000D+02  0.3349872639D-01
      0.1962000000D+01  0.2348008012D+00
      0.4446000000D+00  0.8136829579D+00
 S   1 1.00       0.000000000000
      0.1220000000D+00  0.1000000000D+01
 P   1 1.00       0.000000000000
      0.7270000000D+00  0.1000000000D+01
 ****
     12 0
 S   3 1.00       0.000000000000
      0.1301000000D+02  0.3349872639D-01
      0.1962000000D+01  0.2348008012D+00
      0.4446000000D+00  0.8136829579D+00
 S   1 1.00       0.000000000000
      0.1220000000D+00  0.1000000000D+01
 P   1 1.00       0.000000000000
      0.7270000000D+00  0.1000000000D+01
 ****

   120 basis functions,   240 primitive gaussians,   120 cartesian basis functions
    21 alpha electrons       21 beta electrons
       nuclear repulsion energy       203.0307491037 Hartrees.
 NAtoms=   12 NActive=   12 NUniq=   12 SFac= 1.00D+00 NAtFMM=   60 NAOKFM=F Big=F
 Integral buffers will be    131072 words long.
 Raffenetti 1 integral format.
 Two-electron integral symmetry is turned off.
 One-electron integrals computed using PRISM.
 NBasis=   120 RedAO= T EigKep=  3.35D-04  NBF=   120
 NBsUse=   120 1.00D-06 EigRej= -1.00D+00 NBFU=   120
 ExpMin= 1.22D-01 ExpMax= 6.67D+03 ExpMxC= 2.28D+02 IAcc=1 IRadAn=         1 AccDes= 0.00D+00
 Harris functional with IExCor=  205 and IRadAn=       1 diagonalized for initial guess.
 HarFok:  IExCor=  205 AccDes= 0.00D+00 IRadAn=         1 IDoV= 1 UseB2=F ITyADJ=14
 ICtDFT=  3500011 ScaDFX=  1.000000  1.000000  1.000000  1.000000
 FoFCou: FMM=F IPFlag=           0 FMFlag=      100000 FMFlg1=           0
         NFxFlg=           0 DoJE=T BraDBF=F KetDBF=T FulRan=T
         wScrn=  0.000000 ICntrl=       500 IOpCl=  0 I1Cent=   200000004 NGrid=           0
         NMat0=    1 NMatS0=      1 NMatT0=    0 NMatD0=    1 NMtDS0=    0 NMtDT0=    0
 Symmetry not used in FoFCou.
 Keep R1 ints in memory in canonical form, NReq=27311712.
 Requested convergence on RMS density matrix=1.00D-08 within 128 cycles.
 Requested convergence on MAX density matrix=1.00D-06.
 Requested convergence on             energy=1.00D-06.
 No special actions if energy rises.
 SCF Done:  E(RHF) =  -230.721538244     A.U. after   10 cycles
            NFock= 10  Conv=0.90D-08     -V/T= 2.0028
 Range of M.O.s used for correlation:     1   120
 NBasis=   120 NAE=    21 NBE=    21 NFC=     0 NFV=     0
 NROrb=    120 NOA=    21 NOB=    21 NVA=    99 NVB=    99

 **** Warning!!: The largest alpha MO coefficient is  0.11733828D+02

 Semi-Direct transformation.
 ModeAB=           2 MOrb=            21 LenV=      33012675
 LASXX=      5799696 LTotXX=     5799696 LenRXX=     5799696
 LTotAB=     5999301 MaxLAS=    18295200 LenRXY=    18295200
 NonZer=    18522000 LenScr=    28548608 LnRSAI=           0
 LnScr1=           0 LExtra=           0 Total=     52643504
 MaxDsk=          -1 SrtSym=           F ITran=            3
 JobTyp=0 Pass  1:  I=   1 to  21.
 (rs|ai) integrals will be sorted in core.
 Spin components of T(2) and E(2):
     alpha-alpha T2 =       0.4187043868D-01 E2=     -0.1069333811D+00
     alpha-beta  T2 =       0.2196917294D+00 E2=     -0.6050460335D+00
     beta-beta   T2 =       0.4187043868D-01 E2=     -0.1069333811D+00
 ANorm=    0.1141679730D+01
 E2 =    -0.8189127956D+00 EUMP2 =    -0.23154045103995D+03
    96 initial guesses have been made.
 Convergence on wavefunction:    0.001000000000000
 Iteration     1 Dimension    96 NMult     0 NNew     96
 New state      1 was old state      2
 New state      2 was old state      4
 New state      3 was old state      8
 New state      4 was old state      6
 New state      5 was old state      3
 New state      6 was old state      1
 New state      7 was old state     22
 New state      8 was old state     24
 New state      9 was old state     10
 New state     10 was old state     12
 New state     11 was old state      9
 New state     12 was old state     11
 New state     13 was old state     28
 New state     14 was old state     27
 New state     15 was old state     16
 New state     16 was old state     18
 New state     17 was old state     14
 New state     18 was old state      7
 New state     19 was old state      5
 New state     21 was old state     30
 New state     22 was old state     26
 New state     23 was old state     15
 New state     24 was old state     13
 New state     25 was old state     17
 New state     26 was old state     19
 New state     27 was old state     29
 New state     28 was old state     25
 New state     29 was old state     32
 New state     30 was old state     31
 New state     31 was old state     34
 New state     32 was old state     40
 New state     33 was old state     36
 New state     34 was old state     33
 New state     35 was old state     39
 New state     36 was old state     37
 New state     37 was old state     38
 New state     38 was old state     35
 New state     39 was old state     50
 New state     40 was old state     21
 New state     41 was old state     23
 New state     42 was old state     46
 New state     43 was old state     48
 New state     44 was old state     45
 New state     45 was old state     47
 New state     46 was old state     49
 New state     47 was old state     56
 New state     48 was old state     52
 Iteration     2 Dimension   192 NMult    96 NNew     96
 New state     11 was old state     18
 New state     12 was old state     19
 New state     13 was old state     11
 New state     14 was old state     12
 New state     15 was old state     13
 New state     16 was old state     20
 New state     17 was old state     15
 New state     18 was old state     16
 New state     19 was old state     17
 New state     20 was old state     14
 New state     21 was old state     26
 New state     22 was old state     24
 New state     23 was old state     25
 New state     24 was old state     23
 New state     25 was old state     21
 New state     26 was old state     22
 New state     29 was old state     31
 New state     30 was old state     29
 New state     31 was old state     30
 New state     32 was old state     47
 New state     33 was old state     48
 New state     35 was old state     39
 New state     36 was old state     40
 New state     37 was old state     41
 New state     38 was old state     32
 New state     39 was old state     33
 New state     40 was old state     36
 New state     41 was old state     35
 New state     42 was old state     55
 New state     43 was old state     56
 New state     44 was old state     37
 New state     45 was old state     51
 New state     46 was old state     53
 New state     47 was old state     38
 New state     48 was old state     46
 Iteration     3 Dimension   216 NMult   192 NNew     24
 New state     19 was old state     20
 New state     20 was old state     21
 New state     21 was old state     23
 New state     23 was old state     24
 New state     24 was old state     27
 Iteration     4 Dimension   240 NMult   216 NNew     24
 New state     21 was old state     22
 New state     22 was old state     21
 Iteration     5 Dimension   255 NMult   240 NNew     15
 Iteration     6 Dimension   261 NMult   255 NNew      6
 Iteration     7 Dimension   266 NMult   261 NNew      5
 Iteration     8 Dimension   269 NMult   266 NNew      3
 Iteration     9 Dimension   272 NMult   269 NNew      3
 Iteration    10 Dimension   273 NMult   272 NNew      1
 Convergence on energies, max DE= 4.23D-07.
 ***********************************************************************
 Excited states from <AA,BB:AA,BB> singles matrix:
 ***********************************************************************
 
 Ground to excited state transition densities written to RWF  633
 Ground to excited state transition electric dipole moments (Au):
       state          X           Y           Z        Dip. S.      Osc.
         1         0.0000      0.0000      0.0000      0.0000      0.0000
         2         0.0000      0.0000      0.0000      0.0000      0.0000
         3         0.0000      0.0000      0.0000      0.0000      0.0000
         4         0.0000      0.0000      0.0000      0.0000      0.0000
         5         0.0000      0.0000      0.0000      0.0000      0.0000
         6        -0.0003      0.0018     -0.0005      0.0000      0.0000
         7         0.0000      0.0000      0.0000      0.0000      0.0000
         8         0.0000      0.0000      0.0000      0.0000      0.0000
         9         0.0000      0.0000      0.0000      0.0000      0.0000
        10         0.0000      0.0000      0.0000      0.0000      0.0000
        11        -1.4007      1.8891     -0.0014      5.5305      1.1344
        12        -1.8893     -1.4009      0.0004      5.5318      1.1347
        13        -0.0060      0.0017      0.0001      0.0000      0.0000
        14         0.0017      0.0062      0.0000      0.0000      0.0000
        15         0.0000      0.0000      0.0000      0.0000      0.0000
        16         0.0000      0.0000      0.0000      0.0000      0.0000
        17         0.0000      0.0000      0.0000      0.0000      0.0000
        18         0.0000      0.0000      0.0000      0.0000      0.0000
        19         0.0003     -0.0003     -0.4103      0.1684      0.0379
        20         0.0008      0.0003      0.0000      0.0000      0.0000
        21         0.0002      0.0002      0.0000      0.0000      0.0000
        22        -0.0002      0.0002     -0.0009      0.0000      0.0000
        23        -0.0006      0.0008     -0.1772      0.0314      0.0074
        24         0.0003      0.0002      0.0001      0.0000      0.0000
 Ground to excited state transition velocity dipole moments (Au):
       state          X           Y           Z        Dip. S.      Osc.
         1         0.0000      0.0000      0.0000      0.0000      0.0000
         2         0.0000      0.0000      0.0000      0.0000      0.0000
         3         0.0000      0.0000      0.0000      0.0000      0.0000
         4         0.0000      0.0000      0.0000      0.0000      0.0000
         5         0.0000      0.0000      0.0000      0.0000      0.0000
         6         0.0000     -0.0002      0.0002      0.0000      0.0000
         7         0.0000      0.0000      0.0000      0.0000      0.0000
         8         0.0000      0.0000      0.0000      0.0000      0.0000
         9         0.0000      0.0000      0.0000      0.0000      0.0000
        10         0.0000      0.0000      0.0000      0.0000      0.0000
        11         0.1306     -0.1768      0.0002      0.0483      0.1047
        12         0.1769      0.1306      0.0000      0.0483      0.1047
        13         0.0011     -0.0004      0.0000      0.0000      0.0000
        14        -0.0004     -0.0012      0.0000      0.0000      0.0000
        15         0.0000      0.0000      0.0000      0.0000      0.0000
        16         0.0000      0.0000      0.0000      0.0000      0.0000
        17         0.0000      0.0000      0.0000      0.0000      0.0000
        18         0.0000      0.0000      0.0000      0.0000      0.0000
        19        -0.0001      0.0001      0.1677      0.0281      0.0555
        20        -0.0002      0.0000      0.0000      0.0000      0.0000
        21        -0.0001     -0.0001      0.0000      0.0000      0.0000
        22         0.0001      0.0000      0.0002      0.0000      0.0000
        23         0.0001     -0.0002      0.0599      0.0036      0.0067
        24        -0.0001     -0.0001      0.0000      0.0000      0.0000
 Ground to excited state transition magnetic dipole moments (Au):
       state          X           Y           Z
         1         0.0000      0.0000      0.0000
         2         0.0000      0.0000      0.0000
         3         0.0000      0.0000      0.0000
         4         0.0000      0.0000      0.0000
         5         0.0001     -0.0002      0.0000
         6         0.0003     -0.0006      0.0023
         7         0.0000      0.0000      0.0000
         8         0.0000      0.0000      0.0000
         9         0.0000      0.0000      0.0000
        10         0.0000      0.0000      0.0000
        11         0.0013     -0.0004     -0.3743
        12        -0.0001     -0.0015     -0.4726
        13        -0.3966      0.4651     -0.0034
        14        -0.4652     -0.3966      0.0011
        15         0.0000      0.0000      0.0000
        16         0.0000      0.0000      0.0000
        17         0.0000      0.0000      0.0000
        18         0.0000      0.0000      0.0000
        19         0.4591     -0.0155      0.0004
        20        -0.0003     -0.0002     -0.0002
        21        -0.0018     -0.0010      0.0003
        22         0.0014     -0.0008     -0.0001
        23         0.1640     -0.0055     -0.0004
        24        -0.0006     -0.0004      0.0006
 Ground to excited state transition velocity quadrupole moments (Au):
       state          XX          YY          ZZ          XY          XZ          YZ
         1         0.0000      0.0000      0.0000      0.0000      0.0000      0.0000
         2         0.0000      0.0000      0.0000      0.0000      0.0000      0.0000
         3         0.0000      0.0000      0.0000      0.0000      0.0000      0.0000
         4         0.0000      0.0000      0.0000      0.0000      0.0000      0.0000
         5         0.0005      0.0005      0.0001      0.0001      0.0001      0.0000
         6         0.0002     -0.0012      0.0000     -0.0003      0.0006      0.0003
         7         0.0000      0.0000      0.0000      0.0000      0.0000      0.0000
         8         0.0000      0.0000      0.0000      0.0000      0.0000      0.0000
         9         0.0000      0.0000      0.0000      0.0000      0.0000      0.0000
        10         0.0000      0.0000      0.0000      0.0000      0.0000      0.0000
        11         0.0238     -0.9682      0.0000      0.3416     -0.0002      0.0018
        12         0.0329      0.7147      0.0000      0.4965      0.0007     -0.0005
        13         0.0005     -0.0025      0.0002      0.0029     -0.3434     -0.2934
        14        -0.0003     -0.0068      0.0006     -0.0007      0.2934     -0.3434
        15         0.0000      0.0000      0.0000      0.0000      0.0000      0.0000
        16         0.0000      0.0000      0.0000      0.0000      0.0000      0.0000
        17         0.0000      0.0000      0.0000      0.0000      0.0000      0.0000
        18         0.0000      0.0000      0.0000      0.0000      0.0000      0.0000
        19        -0.0006      0.0007     -0.0003     -0.0003      0.0155      0.4591
        20        -0.0002      0.0001      0.0000      0.0002      0.0000      0.0000
        21         0.0001     -0.0006      0.0000     -0.0001      0.0001     -0.0004
        22         0.0006      0.0003     -0.0005      0.0001      0.0002      0.0007
        23         0.0001     -0.0003     -0.0002      0.0002      0.0055      0.1640
        24         0.0003     -0.0007      0.0000     -0.0006      0.0006     -0.0006
 <0|del|b> * <b|rxdel|0> + <0|del|b> * <b|delr+rdel|0>
 Rotatory Strengths (R) in cgs (10**-40 erg-esu-cm/Gauss)
       state          XX          YY          ZZ    R(velocity)    E-M Angle
         1         0.0000      0.0000      0.0000      0.0000       90.00
         2         0.0000      0.0000      0.0000      0.0000       90.00
         3         0.0000      0.0000      0.0000      0.0000       90.00
         4         0.0000      0.0000      0.0000      0.0000       90.00
         5         0.0000      0.0000      0.0000      0.0000       90.00
         6         0.0010      0.0009      0.0000      0.0006       90.00
         7         0.0000      0.0000      0.0000      0.0000       90.00
         8         0.0000      0.0000      0.0000      0.0000       90.00
         9         0.0000      0.0000      0.0000      0.0000       90.00
        10         0.0000      0.0000      0.0000      0.0000       90.00
        11         0.0360      0.3075      0.0458      0.1298       89.88
        12        -0.3295     -0.1062     -0.0426     -0.1595       90.11
        13        -0.3394     -0.8477     -0.1778     -0.4550      149.30
        14         0.9068      0.3757      0.1922      0.4915       30.08
        15         0.0000      0.0000      0.0000      0.0000       90.00
        16         0.0000      0.0000      0.0000      0.0000       90.00
        17         0.0000      0.0000      0.0000      0.0000       90.00
        18         0.0000      0.0000      0.0000      0.0000       90.00
        19         0.0066      0.0137      0.0000      0.0067       90.00
        20         0.0000      0.0001      0.0001      0.0000       90.00
        21         0.0001      0.0002      0.0002      0.0002       90.00
        22         0.0000      0.0001      0.0001      0.0001       90.00
        23        -0.0101      0.0086      0.0000     -0.0005       90.00
        24         0.0001      0.0001      0.0000      0.0001       90.00
 1/2[<0|r|b>*<b|rxdel|0> + (<0|rxdel|b>*<b|r|0>)*]
 Rotatory Strengths (R) in cgs (10**-40 erg-esu-cm/Gauss)
       state          XX          YY          ZZ     R(length)
         1         0.0000      0.0000      0.0000      0.0000
         2         0.0000      0.0000      0.0000      0.0000
         3         0.0000      0.0000      0.0000      0.0000
         4         0.0000      0.0000      0.0000      0.0000
         5         0.0000      0.0000      0.0000      0.0000
         6         0.0001      0.0008      0.0009      0.0006
         7         0.0000      0.0000      0.0000      0.0000
         8         0.0000      0.0000      0.0000      0.0000
         9         0.0000      0.0000      0.0000      0.0000
        10         0.0000      0.0000      0.0000      0.0000
        11         1.2977      0.5093     -0.3615      0.4818
        12        -0.1116     -1.4870      0.1452     -0.4845
        13        -1.6916     -0.5526      0.0002     -0.7480
        14         0.5646      1.7250      0.0000      0.7632
        15         0.0000      0.0000      0.0000      0.0000
        16         0.0000      0.0000      0.0000      0.0000
        17         0.0000      0.0000      0.0000      0.0000
        18         0.0000      0.0000      0.0000      0.0000
        19        -0.0957     -0.0037      0.1138      0.0048
        20         0.0002      0.0000      0.0000      0.0001
        21         0.0002      0.0001      0.0000      0.0001
        22         0.0002      0.0001      0.0000      0.0001
        23         0.0727      0.0031     -0.0527      0.0077
        24         0.0001      0.0001      0.0000      0.0001
  1/2[<0|del|b>*<b|r|0> + (<0|r|b>*<b|del|0>)*] (Au)
       state          X           Y           Z        Dip. S.   Osc.(frdel)
         1         0.0000      0.0000      0.0000      0.0000      0.0000
         2         0.0000      0.0000      0.0000      0.0000      0.0000
         3         0.0000      0.0000      0.0000      0.0000      0.0000
         4         0.0000      0.0000      0.0000      0.0000      0.0000
         5         0.0000      0.0000      0.0000      0.0000      0.0000
         6         0.0000      0.0000      0.0000      0.0000      0.0000
         7         0.0000      0.0000      0.0000      0.0000      0.0000
         8         0.0000      0.0000      0.0000      0.0000      0.0000
         9         0.0000      0.0000      0.0000      0.0000      0.0000
        10         0.0000      0.0000      0.0000      0.0000      0.0000
        11        -0.1829     -0.3340      0.0000      0.5169      0.3446
        12        -0.3341     -0.1830      0.0000      0.5171      0.3447
        13         0.0000      0.0000      0.0000      0.0000      0.0000
        14         0.0000      0.0000      0.0000      0.0000      0.0000
        15         0.0000      0.0000      0.0000      0.0000      0.0000
        16         0.0000      0.0000      0.0000      0.0000      0.0000
        17         0.0000      0.0000      0.0000      0.0000      0.0000
        18         0.0000      0.0000      0.0000      0.0000      0.0000
        19         0.0000      0.0000     -0.0688      0.0688      0.0459
        20         0.0000      0.0000      0.0000      0.0000      0.0000
        21         0.0000      0.0000      0.0000      0.0000      0.0000
        22         0.0000      0.0000      0.0000      0.0000      0.0000
        23         0.0000      0.0000     -0.0106      0.0106      0.0071
        24         0.0000      0.0000      0.0000      0.0000      0.0000

 Excitation energies and oscillator strengths:
 
 Excited state symmetry could not be determined.
 Excited State   1:      Triplet-?Sym    3.3952 eV  365.17 nm  f=0.0000  <S**2>=2.000
      17 -> 30         0.16823
      20 -> 23        -0.47899
      21 -> 22         0.47988
 This state for optimization and/or second-order correction.
 Total Energy, E(CIS) =  -230.596765359    
 Copying the excited state density for this state as the 1-particle RhoCI density.
 
 Excited state symmetry could not be determined.
 Excited State   2:      Triplet-?Sym    4.9900 eV  248.47 nm  f=0.0000  <S**2>=2.000
      20 -> 22         0.44091
      20 -> 23         0.23091
      21 -> 22         0.23049
      21 -> 23        -0.44062
 
 Excited state symmetry could not be determined.
 Excited State   3:      Triplet-?Sym    4.9903 eV  248.45 nm  f=0.0000  <S**2>=2.000
      20 -> 22        -0.23072
      20 -> 23         0.44114
      21 -> 22         0.44039
      21 -> 23         0.23068
 
 Excited state symmetry could not be determined.
 Excited State   4:      Triplet-?Sym    5.6715 eV  218.61 nm  f=0.0000  <S**2>=2.000
      20 -> 22         0.49777
      21 -> 23         0.49804
 
 Excited state symmetry could not be determined.
 Excited State   5:      Singlet-?Sym    6.2018 eV  199.92 nm  f=0.0000  <S**2>=0.000
      20 -> 22         0.49829
      21 -> 23         0.49824
 
 Excited state symmetry could not be determined.
 Excited State   6:      Singlet-?Sym    6.3697 eV  194.65 nm  f=0.0000  <S**2>=0.000
      20 -> 23        -0.48960
      21 -> 22         0.49022
 
 Excited state symmetry could not be determined.
 Excited State   7:      Triplet-?Sym    7.8676 eV  157.59 nm  f=0.0000  <S**2>=2.000
      17 -> 22         0.57634
      21 -> 30         0.39109
 
 Excited state symmetry could not be determined.
 Excited State   8:      Triplet-?Sym    7.8687 eV  157.57 nm  f=0.0000  <S**2>=2.000
      17 -> 23         0.57631
      20 -> 30        -0.39113
 
 Excited state symmetry could not be determined.
 Excited State   9:      Triplet-?Sym    8.2520 eV  150.25 nm  f=0.0000  <S**2>=2.000
      17 -> 26         0.13930
      21 -> 24         0.66877
 
 Excited state symmetry could not be determined.
 Excited State  10:      Triplet-?Sym    8.2531 eV  150.23 nm  f=0.0000  <S**2>=2.000
      17 -> 25        -0.13936
      20 -> 24         0.66873
 
 Excited state symmetry could not be determined.
 Excited State  11:      Singlet-?Sym    8.3723 eV  148.09 nm  f=1.1344  <S**2>=0.000
      20 -> 22        -0.21227
      20 -> 23         0.43403
      21 -> 22         0.43347
      21 -> 23         0.21229
 
 Excited state symmetry could not be determined.
 Excited State  12:      Singlet-?Sym    8.3726 eV  148.08 nm  f=1.1347  <S**2>=0.000
      20 -> 22        -0.43373
      20 -> 23        -0.21242
      21 -> 22        -0.21214
      21 -> 23         0.43378
 
 Excited state symmetry could not be determined.
 Excited State  13:      Singlet-?Sym    8.4804 eV  146.20 nm  f=0.0000  <S**2>=0.000
      17 -> 26         0.12830
      21 -> 24         0.67845
 
 Excited state symmetry could not be determined.
 Excited State  14:      Singlet-?Sym    8.4815 eV  146.18 nm  f=0.0000  <S**2>=0.000
      17 -> 25        -0.12836
      20 -> 24         0.67842
 
 Excited state symmetry could not be determined.
 Excited State  15:      Triplet-?Sym    8.8665 eV  139.83 nm  f=0.0000  <S**2>=2.000
      17 -> 24         0.25017
      18 -> 22        -0.11208
      19 -> 23        -0.11235
      20 -> 25        -0.42756
      20 -> 26         0.12176
      21 -> 25         0.12187
      21 -> 26         0.42794
 
 Excited state symmetry could not be determined.
 Excited State  16:      Triplet-?Sym    9.0403 eV  137.15 nm  f=0.0000  <S**2>=2.000
      14 -> 30        -0.17270
      18 -> 23        -0.44732
      19 -> 22         0.48724
 
 Excited state symmetry could not be determined.
 Excited State  17:      Triplet-?Sym    9.0847 eV  136.48 nm  f=0.0000  <S**2>=2.000
      13 -> 30         0.12054
      18 -> 22         0.38396
      19 -> 23         0.54355
      21 -> 26         0.10335
 
 Excited state symmetry could not be determined.
 Excited State  18:      Triplet-?Sym    9.0867 eV  136.45 nm  f=0.0000  <S**2>=2.000
      16 -> 30         0.15057
      18 -> 22        -0.32906
      18 -> 23         0.37397
      19 -> 22         0.34728
      19 -> 23         0.29124
 
 Excited state symmetry could not be determined.
 Excited State  19:      Singlet-?Sym    9.1856 eV  134.98 nm  f=0.0379  <S**2>=0.000
      17 -> 24         0.23776
      20 -> 25        -0.43639
      20 -> 26         0.12427
      21 -> 25         0.12442
      21 -> 26         0.43689
 
 Excited state symmetry could not be determined.
 Excited State  20:      Singlet-?Sym    9.3589 eV  132.48 nm  f=0.0000  <S**2>=0.000
      14 -> 30        -0.15771
      18 -> 23        -0.46897
      19 -> 22         0.47750
 
 Excited state symmetry could not be determined.
 Excited State  21:      Singlet-?Sym    9.5765 eV  129.47 nm  f=0.0000  <S**2>=0.000
      16 -> 30         0.12291
      18 -> 22        -0.22723
      18 -> 23         0.41057
      19 -> 22         0.40317
      19 -> 23         0.22655
 
 Excited state symmetry could not be determined.
 Excited State  22:      Singlet-?Sym    9.5766 eV  129.47 nm  f=0.0000  <S**2>=0.000
      15 -> 30        -0.12290
      18 -> 22        -0.40379
      18 -> 23        -0.22852
      19 -> 22        -0.22526
      19 -> 23         0.40999
 
 Excited state symmetry could not be determined.
 Excited State  23:      Singlet-?Sym    9.6465 eV  128.53 nm  f=0.0074  <S**2>=0.000
      13 -> 30         0.10497
      18 -> 22         0.48151
      19 -> 23         0.47656
 
 Excited state symmetry could not be determined.
 Excited State  24:      Singlet-?Sym    9.8963 eV  125.28 nm  f=0.0000  <S**2>=0.000
      17 -> 27         0.10614
      18 -> 23         0.10419
      19 -> 22         0.10341
      20 -> 25         0.40914
      20 -> 26         0.21157
      21 -> 25        -0.21243
      21 -> 26         0.40905
      21 -> 29        -0.13487
 SavETr:  write IOETrn=   770 NScale= 10 NData=  16 NLR=1 NState=   24 LETran=     442.

 **********************************************************************

            Population analysis using the SCF density.

 **********************************************************************

 Alpha  occ. eigenvalues --  -11.24331 -11.24274 -11.24274 -11.24153 -11.24152
 Alpha  occ. eigenvalues --  -11.24093  -1.14800  -1.01154  -1.01149  -0.81870
 Alpha  occ. eigenvalues --   -0.81864  -0.70107  -0.63474  -0.61561  -0.58120
 Alpha  occ. eigenvalues --   -0.58118  -0.49939  -0.48858  -0.48849  -0.33402
 Alpha  occ. eigenvalues --   -0.33397
 Alpha virt. eigenvalues --    0.13695   0.13701   0.17914   0.21859   0.21860
 Alpha virt. eigenvalues --    0.25483   0.25484   0.27007   0.35057   0.43606
 Alpha virt. eigenvalues --    0.43610   0.46760   0.46767   0.58048   0.58414
 Alpha virt. eigenvalues --    0.66033   0.66618   0.67984   0.71117   0.71122
 Alpha virt. eigenvalues --    0.73108   0.73111   0.73178   0.73185   0.74276
 Alpha virt. eigenvalues --    0.82204   0.82207   0.83923   0.83927   0.87905
 Alpha virt. eigenvalues --    0.87909   0.90906   0.97842   0.98055   1.04794
 Alpha virt. eigenvalues --    1.08129   1.08138   1.12518   1.15137   1.18714
 Alpha virt. eigenvalues --    1.18717   1.24151   1.24155   1.24403   1.24405
 Alpha virt. eigenvalues --    1.28666   1.31854   1.31856   1.45999   1.50801
 Alpha virt. eigenvalues --    1.50803   1.72167   1.73985   1.73988   1.76336
 Alpha virt. eigenvalues --    1.78524   1.85868   1.85871   1.87796   1.87798
 Alpha virt. eigenvalues --    1.89001   1.93247   1.94464   1.94474   1.95190
 Alpha virt. eigenvalues --    1.95199   2.08718   2.08723   2.10680   2.14614
 Alpha virt. eigenvalues --    2.14616   2.15037   2.15052   2.16671   2.25414
 Alpha virt. eigenvalues --    2.25419   2.26132   2.26134   2.30611   2.49933
 Alpha virt. eigenvalues --    2.54614   2.62073   2.72470   2.72479   2.74386
 Alpha virt. eigenvalues --    2.74389   2.79825   2.79851   2.86349   2.99649
 Alpha virt. eigenvalues --    3.10316   3.10324   3.11200   3.16413   3.16414
 Alpha virt. eigenvalues --    3.61569   3.61587   3.83783   4.46749
     Molecular Orbital Coefficients:
                           1         2         3         4         5
                           O         O         O         O         O
     Eigenvalues --   -11.24331 -11.24274 -11.24274 -11.24153 -11.24152
   1 1   C  1S          0.39100   0.56492  -0.14772   0.54961  -0.13923
   2        2S          0.00725   0.01026  -0.00268   0.00985  -0.00250
   3        3S         -0.00016  -0.00058   0.00016  -0.00123   0.00032
   4        4PX         0.00009  -0.00002  -0.00028   0.00001   0.00022
   5        4PY         0.00015   0.00012   0.00013  -0.00010  -0.00010
   6        4PZ         0.00000   0.00000   0.00000   0.00000   0.00000
   7        5PX         0.00006  -0.00001  -0.00037  -0.00004   0.00025
   8        5PY         0.00010   0.00020   0.00017  -0.00020  -0.00008
   9        5PZ         0.00000   0.00000   0.00000   0.00000   0.00000
  10        6XX        -0.00086  -0.00131   0.00014  -0.00109   0.00037
  11        6YY        -0.00095  -0.00132   0.00055  -0.00117   0.00020
  12        6ZZ        -0.00104  -0.00151   0.00040  -0.00144   0.00036
  13        6XY        -0.00008  -0.00015  -0.00010  -0.00002   0.00007
  14        6XZ         0.00000   0.00000   0.00000   0.00000   0.00000
  15        6YZ         0.00000   0.00000   0.00000   0.00000   0.00000
  16 2   C  1S          0.39651   0.16586  -0.55164  -0.14063   0.55740
  17        2S          0.00735   0.00301  -0.01002  -0.00252   0.01000
  18        3S         -0.00015  -0.00016   0.00055   0.00026  -0.00131
  19        4PX        -0.00008  -0.00028  -0.00003  -0.00021  -0.00002
  20        4PY         0.00015  -0.00013  -0.00012  -0.00010  -0.00010
  21        4PZ         0.00000   0.00000   0.00000   0.00000   0.00000
  22        5PX        -0.00005  -0.00038  -0.00001  -0.00023   0.00005
  23        5PY         0.00011  -0.00016  -0.00021  -0.00011  -0.00023
  24        5PZ         0.00000   0.00000   0.00000   0.00000   0.00000
  25        6XX        -0.00088  -0.00018   0.00128   0.00037  -0.00110
  26        6YY        -0.00096  -0.00060   0.00129   0.00021  -0.00118
  27        6ZZ        -0.00106  -0.00044   0.00148   0.00037  -0.00146
  28        6XY         0.00009  -0.00009  -0.00015  -0.00007   0.00002
  29        6XZ         0.00000   0.00000   0.00000   0.00000   0.00000
  30        6YZ         0.00000   0.00000   0.00000   0.00000   0.00000
  31 3   C  1S          0.41651  -0.39031  -0.41882  -0.41443  -0.40307
  32        2S          0.00771  -0.00708  -0.00760  -0.00744  -0.00723
  33        3S         -0.00018   0.00040   0.00045   0.00107   0.00096
  34        4PX        -0.00018   0.00006   0.00007  -0.00006  -0.00006
  35        4PY         0.00001  -0.00023   0.00022   0.00017  -0.00017
  36        4PZ         0.00000   0.00000   0.00000   0.00000   0.00000
  37        5PX        -0.00013   0.00013   0.00012  -0.00021  -0.00017
  38        5PY         0.00001  -0.00030   0.00030   0.00018  -0.00018
  39        5PZ         0.00000   0.00000   0.00000   0.00000   0.00000
  40        6XX        -0.00105   0.00099   0.00106   0.00086   0.00084
  41        6YY        -0.00088   0.00083   0.00089   0.00082   0.00080
  42        6ZZ        -0.00111   0.00104   0.00112   0.00108   0.00105
  43        6XY        -0.00001   0.00019  -0.00019  -0.00008   0.00008
  44        6XZ         0.00000   0.00000   0.00000   0.00000   0.00000
  45        6YZ         0.00000   0.00000   0.00000   0.00000   0.00000
  46 4   C  1S          0.42590  -0.54937   0.14731   0.56335  -0.14179
  47        2S          0.00788  -0.00997   0.00267   0.01010  -0.00254
  48        3S         -0.00019   0.00059  -0.00016  -0.00144   0.00036
  49        4PX        -0.00009  -0.00003  -0.00028  -0.00001  -0.00021
  50        4PY        -0.00015   0.00012   0.00014   0.00010   0.00010
  51        4PZ         0.00000   0.00000   0.00000   0.00000   0.00000
  52        5PX        -0.00006  -0.00001  -0.00038   0.00009  -0.00025
  53        5PY        -0.00011   0.00020   0.00017   0.00027   0.00006
  54        5PZ         0.00000   0.00000   0.00000   0.00000   0.00000
  55        6XX        -0.00094   0.00127  -0.00013  -0.00111   0.00037
  56        6YY        -0.00103   0.00128  -0.00055  -0.00118   0.00021
  57        6ZZ        -0.00113   0.00147  -0.00039  -0.00147   0.00037
  58        6XY        -0.00009   0.00015   0.00010  -0.00001   0.00006
  59        6XZ         0.00000   0.00000   0.00000   0.00000   0.00000
  60        6YZ         0.00000   0.00000   0.00000   0.00000   0.00000
  61 5   C  1S          0.41280  -0.13415   0.55596  -0.17385   0.55217
  62        2S          0.00764  -0.00243   0.01009  -0.00312   0.00990
  63        3S         -0.00017   0.00013  -0.00057   0.00049  -0.00135
  64        4PX         0.00010  -0.00028  -0.00003   0.00021   0.00002
  65        4PY        -0.00015  -0.00014  -0.00012   0.00009   0.00010
  66        4PZ         0.00000   0.00000   0.00000   0.00000   0.00000
  67        5PX         0.00007  -0.00038  -0.00001   0.00027  -0.00006
  68        5PY        -0.00010  -0.00016  -0.00021   0.00003   0.00025
  69        5PZ         0.00000   0.00000   0.00000   0.00000   0.00000
  70        6XX        -0.00091   0.00011  -0.00129   0.00043  -0.00108
  71        6YY        -0.00101   0.00052  -0.00130   0.00027  -0.00116
  72        6ZZ        -0.00110   0.00036  -0.00149   0.00045  -0.00144
  73        6XY         0.00008   0.00010   0.00015  -0.00006   0.00001
  74        6XZ         0.00000   0.00000   0.00000   0.00000   0.00000
  75        6YZ         0.00000   0.00000   0.00000   0.00000   0.00000
  76 6   C  1S          0.39631   0.41701   0.40044  -0.39030  -0.41950
  77        2S          0.00734   0.00757   0.00727  -0.00700  -0.00752
  78        3S         -0.00016  -0.00041  -0.00041   0.00085   0.00102
  79        4PX         0.00017   0.00007   0.00007   0.00005   0.00006
  80        4PY         0.00001  -0.00022   0.00022  -0.00018   0.00017
  81        4PZ         0.00000   0.00000   0.00000   0.00000   0.00000
  82        5PX         0.00012   0.00013   0.00013   0.00012   0.00018
  83        5PY         0.00001  -0.00030   0.00030  -0.00019   0.00018
  84        5PZ         0.00000   0.00000   0.00000   0.00000   0.00000
  85        6XX        -0.00100  -0.00106  -0.00102   0.00083   0.00088
  86        6YY        -0.00083  -0.00089  -0.00085   0.00078   0.00083
  87        6ZZ        -0.00105  -0.00112  -0.00107   0.00102   0.00110
  88        6XY         0.00001  -0.00019   0.00019  -0.00009   0.00008
  89        6XZ         0.00000   0.00000   0.00000   0.00000   0.00000
  90        6YZ         0.00000   0.00000   0.00000   0.00000   0.00000
  91 7   H  1S          0.00021   0.00032  -0.00008   0.00019  -0.00005
  92        2S          0.00016   0.00020  -0.00005   0.00012  -0.00003
  93        3PX         0.00004   0.00003  -0.00007   0.00001   0.00002
  94        3PY         0.00007   0.00009   0.00001   0.00000  -0.00001
  95        3PZ         0.00000   0.00000   0.00000   0.00000   0.00000
  96 8   H  1S          0.00021   0.00009  -0.00031  -0.00005   0.00019
  97        2S          0.00017   0.00006  -0.00020  -0.00004   0.00012
  98        3PX        -0.00004  -0.00007   0.00003  -0.00002   0.00000
  99        3PY         0.00007  -0.00001  -0.00009  -0.00001   0.00000
 100        3PZ         0.00000   0.00000   0.00000   0.00000   0.00000
 101 9   H  1S          0.00022  -0.00022  -0.00023  -0.00014  -0.00014
 102        2S          0.00017  -0.00014  -0.00015  -0.00008  -0.00008
 103        3PX        -0.00008   0.00007   0.00007   0.00000   0.00000
 104        3PY         0.00000  -0.00005   0.00005   0.00002  -0.00002
 105        3PZ         0.00000   0.00000   0.00000   0.00000   0.00000
 106 10  H  1S          0.00023  -0.00031   0.00008   0.00019  -0.00005
 107        2S          0.00018  -0.00020   0.00005   0.00011  -0.00003
 108        3PX        -0.00004   0.00003  -0.00007   0.00000  -0.00002
 109        3PY        -0.00007   0.00009   0.00001   0.00001   0.00001
 110        3PZ         0.00000   0.00000   0.00000   0.00000   0.00000
 111 11  H  1S          0.00022  -0.00008   0.00031  -0.00006   0.00019
 112        2S          0.00017  -0.00005   0.00020  -0.00003   0.00011
 113        3PX         0.00004  -0.00007   0.00003   0.00002   0.00000
 114        3PY        -0.00007  -0.00001  -0.00009   0.00001   0.00001
 115        3PZ         0.00000   0.00000   0.00000   0.00000   0.00000
 116 12  H  1S          0.00021   0.00023   0.00022  -0.00014  -0.00014
 117        2S          0.00016   0.00015   0.00014  -0.00009  -0.00008
 118        3PX         0.00008   0.00007   0.00007   0.00000   0.00000
 119        3PY         0.00000  -0.00005   0.00005  -0.00002   0.00002
 120        3PZ         0.00000   0.00000   0.00000   0.00000   0.00000
                           6         7         8         9        10
                           O         O         O         O         O
     Eigenvalues --   -11.24093  -1.14800  -1.01154  -1.01149  -0.81870
   1 1   C  1S          0.42175  -0.08863  -0.03264  -0.11976  -0.09218
   2        2S          0.00768   0.17810   0.06501   0.23849   0.18900
   3        3S         -0.00378   0.09297   0.03741   0.13716   0.15983
   4        4PX        -0.00005   0.03237   0.10171  -0.01056   0.02987
   5        4PY        -0.00009   0.05613  -0.04859   0.04326  -0.07999
   6        4PZ         0.00000  -0.00003   0.00004  -0.00003   0.00004
   7        5PX        -0.00077   0.00625   0.03985  -0.00060   0.01878
   8        5PY        -0.00134   0.01082  -0.01695   0.02246  -0.00584
   9        5PZ         0.00000   0.00000   0.00002  -0.00001   0.00000
  10        6XX        -0.00074   0.01032   0.01648   0.00788   0.00628
  11        6YY        -0.00063   0.00614  -0.01236   0.00719  -0.00350
  12        6ZZ        -0.00102  -0.00528  -0.00186  -0.00682  -0.00414
  13        6XY         0.00012  -0.00419   0.00671  -0.01042   0.00005
  14        6XZ         0.00000   0.00000   0.00000   0.00001   0.00000
  15        6YZ         0.00000  -0.00001   0.00001  -0.00001   0.00000
  16 2   C  1S         -0.41671  -0.08863  -0.12007  -0.03149   0.01954
  17        2S         -0.00759   0.17811   0.23912   0.06272  -0.04006
  18        3S          0.00376   0.09295   0.13751   0.03607  -0.03389
  19        4PX        -0.00005  -0.03237   0.00961  -0.10182  -0.18287
  20        4PY         0.00008   0.05613   0.04283  -0.04902  -0.09229
  21        4PZ         0.00000   0.00000   0.00003   0.00001  -0.00002
  22        5PX        -0.00078  -0.00623   0.00024  -0.03986  -0.05102
  23        5PY         0.00133   0.01080   0.02231  -0.01716  -0.03051
  24        5PZ         0.00000   0.00000  -0.00002   0.00000   0.00000
  25        6XX         0.00074   0.01032   0.00804   0.01641   0.01090
  26        6YY         0.00061   0.00613   0.00707  -0.01242  -0.01147
  27        6ZZ         0.00101  -0.00528  -0.00683  -0.00180   0.00088
  28        6XY         0.00012   0.00419   0.01036  -0.00681  -0.00814
  29        6XZ         0.00000   0.00000   0.00000   0.00000   0.00000
  30        6YZ         0.00000   0.00000   0.00000   0.00000   0.00000
  31 3   C  1S          0.39713  -0.08859  -0.08739   0.08816   0.07259
  32        2S          0.00724   0.17803   0.17405  -0.17558  -0.14882
  33        3S         -0.00372   0.09294   0.10011  -0.10100  -0.12585
  34        4PX         0.00010  -0.06478  -0.02353   0.02370  -0.04275
  35        4PY         0.00001  -0.00009  -0.08287  -0.08187   0.13867
  36        4PZ         0.00000  -0.00004   0.00002   0.00007  -0.00008
  37        5PX         0.00154  -0.01248  -0.01397   0.01412   0.00341
  38        5PY         0.00001  -0.00001  -0.03165  -0.03135   0.04030
  39        5PZ         0.00000  -0.00001   0.00001   0.00002  -0.00002
  40        6XX        -0.00052   0.00404  -0.00033   0.00032   0.00081
  41        6YY        -0.00075   0.01241   0.01132  -0.01144  -0.00298
  42        6ZZ        -0.00096  -0.00528  -0.00497   0.00502   0.00326
  43        6XY         0.00000   0.00001   0.01310   0.01295  -0.01035
  44        6XZ         0.00000   0.00001   0.00000  -0.00001   0.00000
  45        6YZ         0.00000  -0.00001   0.00000   0.00002  -0.00001
  46 4   C  1S         -0.38834  -0.08857   0.03274   0.11974  -0.09218
  47        2S         -0.00708   0.17800  -0.06521  -0.23848   0.18900
  48        3S          0.00370   0.09293  -0.03752  -0.13718   0.15985
  49        4PX        -0.00005  -0.03244   0.10174  -0.01034  -0.02980
  50        4PY        -0.00008  -0.05606  -0.04856   0.04316   0.07992
  51        4PZ         0.00000   0.00003   0.00006  -0.00005  -0.00005
  52        5PX        -0.00077  -0.00625   0.03982  -0.00055  -0.01871
  53        5PY        -0.00133  -0.01081  -0.01697   0.02246   0.00581
  54        5PZ         0.00000   0.00000   0.00003  -0.00001  -0.00001
  55        6XX         0.00068   0.01032  -0.01647  -0.00791   0.00628
  56        6YY         0.00056   0.00613   0.01237  -0.00718  -0.00350
  57        6ZZ         0.00094  -0.00528   0.00186   0.00682  -0.00414
  58        6XY        -0.00012  -0.00418  -0.00671   0.01040   0.00005
  59        6XZ         0.00000   0.00001   0.00000  -0.00001   0.00001
  60        6YZ         0.00000  -0.00001  -0.00001   0.00002   0.00000
  61 5   C  1S          0.40070  -0.08861   0.12004   0.03164   0.01959
  62        2S          0.00730   0.17807  -0.23906  -0.06301  -0.04018
  63        3S         -0.00373   0.09294  -0.13749  -0.03622  -0.03398
  64        4PX        -0.00004   0.03240   0.00944  -0.10188   0.18292
  65        4PY         0.00009  -0.05611   0.04275  -0.04899   0.09224
  66        4PZ         0.00000   0.00006  -0.00005   0.00001  -0.00003
  67        5PX        -0.00076   0.00622   0.00019  -0.03984   0.05103
  68        5PY         0.00133  -0.01080   0.02229  -0.01719   0.03052
  69        5PZ         0.00000   0.00001  -0.00002   0.00000  -0.00001
  70        6XX        -0.00070   0.01032  -0.00806  -0.01640   0.01089
  71        6YY        -0.00059   0.00613  -0.00706   0.01244  -0.01149
  72        6ZZ        -0.00097  -0.00528   0.00683   0.00180   0.00088
  73        6XY        -0.00012   0.00419  -0.01035   0.00680  -0.00814
  74        6XZ         0.00000   0.00000   0.00000  -0.00001   0.00001
  75        6YZ         0.00000  -0.00001   0.00001  -0.00001   0.00001
  76 6   C  1S         -0.41658  -0.08863   0.08734  -0.08820   0.07263
  77        2S         -0.00759   0.17810  -0.17394   0.17565  -0.14891
  78        3S          0.00376   0.09296  -0.10005   0.10102  -0.12591
  79        4PX         0.00010   0.06479  -0.02349   0.02370   0.04283
  80        4PY        -0.00001  -0.00004  -0.08271  -0.08208  -0.13872
  81        4PZ         0.00000  -0.00001   0.00007   0.00004   0.00011
  82        5PX         0.00154   0.01249  -0.01400   0.01409  -0.00341
  83        5PY        -0.00001  -0.00001  -0.03164  -0.03138  -0.04035
  84        5PZ         0.00000   0.00000   0.00002   0.00002   0.00003
  85        6XX         0.00056   0.00404   0.00032  -0.00034   0.00080
  86        6YY         0.00079   0.01241  -0.01133   0.01143  -0.00300
  87        6ZZ         0.00101  -0.00528   0.00497  -0.00502   0.00327
  88        6XY         0.00000   0.00000  -0.01308  -0.01298  -0.01035
  89        6XZ         0.00000   0.00000   0.00001   0.00001   0.00001
  90        6YZ         0.00000  -0.00001   0.00001  -0.00001   0.00001
  91 7   H  1S         -0.00002   0.04439   0.02674   0.09808   0.14450
  92        2S         -0.00017   0.00291   0.00355   0.01298   0.03057
  93        3PX        -0.00004   0.00367   0.00426   0.00639   0.00942
  94        3PY        -0.00007   0.00636   0.00196   0.01255   0.01394
  95        3PZ         0.00000   0.00000   0.00000  -0.00001  -0.00001
  96 8   H  1S          0.00002   0.04439   0.09831   0.02581  -0.03058
  97        2S          0.00017   0.00290   0.01301   0.00343  -0.00647
  98        3PX        -0.00004  -0.00367  -0.00642  -0.00420  -0.00144
  99        3PY         0.00007   0.00637   0.01257   0.00185  -0.00493
 100        3PZ         0.00000  -0.00001  -0.00002   0.00000   0.00000
 101 9   H  1S         -0.00003   0.04437   0.07154  -0.07220  -0.11374
 102        2S         -0.00017   0.00291   0.00946  -0.00957  -0.02406
 103        3PX         0.00008  -0.00734  -0.01026   0.01035   0.01321
 104        3PY         0.00000   0.00000  -0.00200  -0.00197   0.00252
 105        3PZ         0.00000   0.00000  -0.00001   0.00001   0.00001
 106 10  H  1S          0.00003   0.04436  -0.02678  -0.09806   0.14445
 107        2S          0.00017   0.00291  -0.00354  -0.01299   0.03056
 108        3PX        -0.00004  -0.00367   0.00427   0.00640  -0.00943
 109        3PY        -0.00007  -0.00636   0.00197   0.01254  -0.01393
 110        3PZ         0.00000   0.00000   0.00000   0.00000   0.00000
 111 11  H  1S         -0.00003   0.04437  -0.09827  -0.02589  -0.03076
 112        2S         -0.00017   0.00290  -0.01301  -0.00342  -0.00651
 113        3PX        -0.00004   0.00367  -0.00643  -0.00421   0.00142
 114        3PY         0.00007  -0.00636   0.01256   0.00186   0.00494
 115        3PZ         0.00000   0.00001  -0.00001   0.00000   0.00000
 116 12  H  1S          0.00002   0.04439  -0.07153   0.07223  -0.11387
 117        2S          0.00017   0.00291  -0.00948   0.00956  -0.02409
 118        3PX         0.00008   0.00735  -0.01025   0.01036  -0.01322
 119        3PY         0.00000   0.00000  -0.00199  -0.00198  -0.00251
 120        3PZ         0.00000   0.00000   0.00000   0.00000   0.00000
                          11        12        13        14        15
                           O         O         O         O         O
     Eigenvalues --    -0.81864  -0.70107  -0.63474  -0.61561  -0.58120
   1 1   C  1S          0.03059   0.00894  -0.05552  -0.00003   0.00084
   2        2S         -0.06271  -0.01196   0.10946   0.00007  -0.00197
   3        3S         -0.05305  -0.03276   0.16765   0.00015  -0.00262
   4        4PX         0.18062   0.09427  -0.06392   0.23976  -0.08105
   5        4PY        -0.08346   0.16348  -0.11042  -0.13822   0.03230
   6        4PZ         0.00006  -0.00009   0.00003   0.00005   0.00003
   7        5PX         0.04917   0.03205  -0.00743   0.08343  -0.00418
   8        5PY        -0.03004   0.05559  -0.01274  -0.04806  -0.00355
   9        5PZ         0.00003  -0.00004  -0.00001   0.00002   0.00003
  10        6XX         0.01023  -0.00070  -0.01474   0.00769  -0.01538
  11        6YY        -0.01114   0.00378   0.00647  -0.00768   0.01527
  12        6ZZ         0.00137  -0.00055  -0.00077   0.00000   0.00002
  13        6XY         0.00819   0.00447   0.02118   0.00514  -0.00984
  14        6XZ         0.00000  -0.00001  -0.00001  -0.00001   0.00001
  15        6YZ         0.00001   0.00000  -0.00001   0.00000  -0.00001
  16 2   C  1S         -0.09513   0.00896   0.05552   0.00005   0.01608
  17        2S          0.19504  -0.01200  -0.10948  -0.00008  -0.03816
  18        3S          0.16496  -0.03279  -0.16769  -0.00010  -0.04935
  19        4PX        -0.00846  -0.09429  -0.06351  -0.23984   0.09379
  20        4PY        -0.06967   0.16347   0.11037  -0.13826  -0.24221
  21        4PZ         0.00008  -0.00015  -0.00012  -0.00002   0.00024
  22        5PX        -0.01287  -0.03208  -0.00732  -0.08338   0.05130
  23        5PY        -0.00226   0.05558   0.01271  -0.04809  -0.09053
  24        5PZ         0.00000  -0.00004  -0.00002  -0.00001   0.00009
  25        6XX         0.00504  -0.00070   0.01473   0.00771   0.00290
  26        6YY        -0.00216   0.00377  -0.00646  -0.00770  -0.00493
  27        6ZZ        -0.00428  -0.00056   0.00077   0.00000   0.00031
  28        6XY         0.00092  -0.00447   0.02118  -0.00513  -0.01086
  29        6XZ         0.00000   0.00000  -0.00001  -0.00001   0.00001
  30        6YZ         0.00000   0.00001   0.00002  -0.00001  -0.00001
  31 3   C  1S          0.06455   0.00895  -0.05552  -0.00002   0.01531
  32        2S         -0.13236  -0.01197   0.10947   0.00004  -0.03632
  33        3S         -0.11198  -0.03277   0.16765   0.00013  -0.04698
  34        4PX        -0.03810  -0.18863   0.12757   0.00026   0.24374
  35        4PY        -0.15605  -0.00004  -0.00006   0.27673   0.04647
  36        4PZ         0.00007  -0.00012   0.00007  -0.00012   0.00020
  37        5PX         0.00303  -0.06415   0.01475   0.00005   0.09884
  38        5PY        -0.04541  -0.00001  -0.00007   0.09629   0.00101
  39        5PZ         0.00003  -0.00004   0.00000  -0.00004   0.00011
  40        6XX         0.00071   0.00601   0.01705   0.00003   0.00490
  41        6YY        -0.00267  -0.00294  -0.02532  -0.00001  -0.00681
  42        6ZZ         0.00290  -0.00055  -0.00077   0.00000   0.00030
  43        6XY         0.01164   0.00000   0.00000  -0.01025  -0.01091
  44        6XZ        -0.00001   0.00001   0.00001   0.00000   0.00000
  45        6YZ         0.00001   0.00000   0.00001  -0.00002   0.00000
  46 4   C  1S          0.03065   0.00897   0.05551   0.00005  -0.00082
  47        2S         -0.06286  -0.01201  -0.10946  -0.00010   0.00194
  48        3S         -0.05317  -0.03280  -0.16765  -0.00010   0.00243
  49        4PX        -0.18064  -0.09435  -0.06398   0.23972  -0.08124
  50        4PY         0.08337  -0.16333  -0.11034  -0.13828   0.03190
  51        4PZ        -0.00014   0.00004   0.00001   0.00023   0.00002
  52        5PX        -0.04916  -0.03207  -0.00738   0.08341  -0.00424
  53        5PY         0.03004  -0.05556  -0.01277  -0.04811  -0.00356
  54        5PZ        -0.00004   0.00002  -0.00001   0.00008   0.00003
  55        6XX         0.01022  -0.00070   0.01473  -0.00768   0.01538
  56        6YY        -0.01116   0.00378  -0.00646   0.00770  -0.01529
  57        6ZZ         0.00138  -0.00055   0.00077   0.00000  -0.00001
  58        6XY         0.00819   0.00447  -0.02118  -0.00512   0.00980
  59        6XZ         0.00000  -0.00001   0.00002   0.00000   0.00000
  60        6YZ         0.00002  -0.00001  -0.00001  -0.00001   0.00001
  61 5   C  1S         -0.09513   0.00896  -0.05553  -0.00001  -0.01608
  62        2S          0.19504  -0.01201   0.10949   0.00002   0.03815
  63        3S          0.16498  -0.03280   0.16772   0.00006   0.04941
  64        4PX         0.00833   0.09437  -0.06357  -0.23975   0.09397
  65        4PY         0.06954  -0.16334   0.11035  -0.13843  -0.24186
  66        4PZ        -0.00005   0.00015  -0.00015   0.00007   0.00029
  67        5PX         0.01280   0.03210  -0.00726  -0.08336   0.05135
  68        5PY         0.00223  -0.05555   0.01276  -0.04814  -0.09050
  69        5PZ         0.00000   0.00005  -0.00003   0.00003   0.00012
  70        6XX         0.00503  -0.00071  -0.01471  -0.00771  -0.00290
  71        6YY        -0.00216   0.00378   0.00644   0.00771   0.00493
  72        6ZZ        -0.00428  -0.00056  -0.00077   0.00000  -0.00032
  73        6XY         0.00092  -0.00448  -0.02118   0.00512   0.01083
  74        6XZ         0.00000   0.00000   0.00001  -0.00001  -0.00001
  75        6YZ         0.00000  -0.00001  -0.00001  -0.00001  -0.00001
  76 6   C  1S          0.06448   0.00895   0.05552   0.00002  -0.01533
  77        2S         -0.13220  -0.01197  -0.10946  -0.00004   0.03635
  78        3S         -0.11182  -0.03277  -0.16763  -0.00002   0.04710
  79        4PX         0.03804   0.18871   0.12753   0.00030   0.24352
  80        4PY         0.15608  -0.00011  -0.00012   0.27674   0.04617
  81        4PZ        -0.00010   0.00001  -0.00002  -0.00021   0.00002
  82        5PX        -0.00303   0.06416   0.01473   0.00011   0.09879
  83        5PY         0.04536  -0.00002  -0.00002   0.09628   0.00087
  84        5PZ        -0.00003   0.00001  -0.00001  -0.00007   0.00002
  85        6XX         0.00072   0.00601  -0.01705   0.00000  -0.00488
  86        6YY        -0.00265  -0.00293   0.02532   0.00002   0.00681
  87        6ZZ         0.00290  -0.00055   0.00077   0.00000  -0.00030
  88        6XY         0.01165   0.00000   0.00001   0.01025   0.01088
  89        6XZ        -0.00001   0.00000   0.00000  -0.00001  -0.00001
  90        6YZ         0.00000   0.00000  -0.00002  -0.00001   0.00000
  91 7   H  1S         -0.04794  -0.14933   0.18419  -0.00009   0.00961
  92        2S         -0.01014  -0.03698   0.07067  -0.00002   0.00348
  93        3PX         0.00033  -0.00661   0.00701   0.00453  -0.00376
  94        3PY        -0.00662  -0.01145   0.01216  -0.00262   0.00291
  95        3PZ         0.00000   0.00000  -0.00001   0.00000   0.00000
  96 8   H  1S          0.14914  -0.14936  -0.18400  -0.00015   0.19816
  97        2S          0.03156  -0.03698  -0.07060  -0.00006   0.07231
  98        3PX        -0.00931   0.00661   0.00701  -0.00453  -0.00848
  99        3PY         0.01462  -0.01146  -0.01214  -0.00263   0.01034
 100        3PZ        -0.00002   0.00002   0.00002   0.00000  -0.00002
 101 9   H  1S         -0.10123  -0.14926   0.18417   0.00027   0.18811
 102        2S         -0.02142  -0.03696   0.07065   0.00011   0.06863
 103        3PX         0.01175   0.01322  -0.01403  -0.00001  -0.01252
 104        3PY        -0.00283   0.00000   0.00000   0.00523   0.00254
 105        3PZ         0.00001   0.00001  -0.00001   0.00000  -0.00001
 106 10  H  1S         -0.04813  -0.14929  -0.18415   0.00008  -0.01003
 107        2S         -0.01018  -0.03697  -0.07064   0.00002  -0.00368
 108        3PX        -0.00032   0.00662   0.00701   0.00453  -0.00375
 109        3PY         0.00663   0.01145   0.01215  -0.00262   0.00293
 110        3PZ         0.00000   0.00000   0.00000   0.00000   0.00000
 111 11  H  1S          0.14908  -0.14929   0.18400   0.00005  -0.19795
 112        2S          0.03154  -0.03697   0.07060   0.00002  -0.07221
 113        3PX         0.00932  -0.00661   0.00702  -0.00453  -0.00847
 114        3PY        -0.01461   0.01145  -0.01214  -0.00262   0.01033
 115        3PZ         0.00001  -0.00001   0.00001   0.00000  -0.00001
 116 12  H  1S         -0.10109  -0.14933  -0.18415  -0.00025  -0.18790
 117        2S         -0.02139  -0.03698  -0.07065  -0.00008  -0.06853
 118        3PX        -0.01174  -0.01323  -0.01403  -0.00002  -0.01251
 119        3PY         0.00283   0.00000   0.00000   0.00523   0.00253
 120        3PZ         0.00000   0.00000   0.00000   0.00000   0.00000
                          16        17        18        19        20
                           O         O         O         O         O
     Eigenvalues --    -0.58118  -0.49939  -0.48858  -0.48849  -0.33402
   1 1   C  1S         -0.01815  -0.00001   0.00265  -0.00134   0.00000
   2        2S          0.04304   0.00002  -0.01124   0.00573   0.00001
   3        3S          0.05573   0.00002   0.00298  -0.00162  -0.00016
   4        4PX         0.14072   0.00012  -0.19846  -0.14509   0.00004
   5        4PY         0.25215   0.00005  -0.11083   0.19977   0.00002
   6        4PZ        -0.00014   0.21570   0.00011   0.00000   0.10594
   7        5PX         0.05836   0.00004  -0.08290  -0.05834  -0.00004
   8        5PY         0.10153   0.00004  -0.04845   0.08323  -0.00005
   9        5PZ        -0.00006   0.12841   0.00006   0.00002   0.08527
  10        6XX         0.00392   0.00001  -0.01982  -0.00740   0.00000
  11        6YY        -0.00164   0.00001   0.02001   0.00729  -0.00001
  12        6ZZ        -0.00036  -0.00001   0.00000   0.00000   0.00001
  13        6XY        -0.00740   0.00001   0.02064  -0.02239   0.00002
  14        6XZ         0.00000   0.00789  -0.00001   0.00002   0.02679
  15        6YZ         0.00000   0.01369  -0.00001   0.00000  -0.01057
  16 2   C  1S         -0.00836   0.00003  -0.00012   0.00298   0.00004
  17        2S          0.01984  -0.00006   0.00054  -0.01263  -0.00010
  18        3S          0.02576  -0.00011  -0.00026   0.00335  -0.00002
  19        4PX        -0.13263  -0.00019   0.21453   0.12003  -0.00012
  20        4PY         0.07710   0.00023   0.13551  -0.18392   0.00022
  21        4PZ        -0.00008   0.21571   0.00002   0.00025   0.31555
  22        5PX        -0.02834  -0.00010   0.08756   0.05113  -0.00016
  23        5PY         0.04604   0.00012   0.05548  -0.07873   0.00028
  24        5PZ        -0.00003   0.12841   0.00001   0.00012   0.25401
  25        6XX         0.01560  -0.00001  -0.01498  -0.01495  -0.00002
  26        6YY        -0.01454   0.00000   0.01496   0.01517   0.00001
  27        6ZZ        -0.00017   0.00000   0.00000   0.00000   0.00000
  28        6XY        -0.00579   0.00000   0.01177  -0.02809  -0.00001
  29        6XZ         0.00001  -0.00789  -0.00001   0.00001  -0.00143
  30        6YZ         0.00002   0.01369   0.00000  -0.00003   0.01375
  31 3   C  1S          0.00976  -0.00002  -0.00249  -0.00163  -0.00001
  32        2S         -0.02315   0.00005   0.01058   0.00688   0.00004
  33        3S         -0.03003   0.00007  -0.00292  -0.00173  -0.00010
  34        4PX         0.15536  -0.00016  -0.18462  -0.11880  -0.00017
  35        4PY        -0.07289   0.00005  -0.13710   0.21366   0.00004
  36        4PZ         0.00016   0.21565  -0.00006  -0.00013   0.20957
  37        5PX         0.06308  -0.00010  -0.07887  -0.05082  -0.00004
  38        5PY        -0.00160   0.00004  -0.05598   0.08730   0.00007
  39        5PZ         0.00005   0.12838  -0.00002  -0.00004   0.16869
  40        6XX         0.00311   0.00003  -0.02417  -0.01553   0.00001
  41        6YY        -0.00436   0.00000   0.02398   0.01543  -0.00001
  42        6ZZ         0.00019  -0.00002   0.00000   0.00000   0.00001
  43        6XY         0.01707   0.00000   0.01126  -0.01758   0.00001
  44        6XZ        -0.00001  -0.01580  -0.00002  -0.00001  -0.00838
  45        6YZ         0.00001  -0.00002   0.00000  -0.00003  -0.02291
  46 4   C  1S          0.01814   0.00002   0.00264  -0.00138  -0.00001
  47        2S         -0.04304  -0.00004  -0.01120   0.00583   0.00002
  48        3S         -0.05573  -0.00006   0.00306  -0.00147   0.00014
  49        4PX         0.14104  -0.00018   0.19827   0.14494   0.00006
  50        4PY         0.25201   0.00013   0.11068  -0.20020  -0.00003
  51        4PZ        -0.00006   0.21563   0.00009   0.00021  -0.10628
  52        5PX         0.05847  -0.00010   0.08279   0.05828   0.00002
  53        5PY         0.10151   0.00008   0.04839  -0.08351  -0.00007
  54        5PZ        -0.00003   0.12837   0.00004   0.00009  -0.08555
  55        6XX        -0.00394   0.00000  -0.01977  -0.00740  -0.00002
  56        6YY         0.00165  -0.00002   0.01997   0.00732   0.00000
  57        6ZZ         0.00036   0.00001  -0.00001   0.00000   0.00003
  58        6XY         0.00738   0.00000   0.02066  -0.02242   0.00004
  59        6XZ         0.00000  -0.00791  -0.00003   0.00001   0.02681
  60        6YZ         0.00001  -0.01367   0.00000  -0.00002  -0.01057
  61 5   C  1S          0.00834   0.00001  -0.00017   0.00298   0.00000
  62        2S         -0.01980  -0.00001   0.00066  -0.01262   0.00002
  63        3S         -0.02557  -0.00003  -0.00007   0.00340  -0.00009
  64        4PX        -0.13299   0.00001  -0.21428  -0.11999   0.00006
  65        4PY         0.07741   0.00025  -0.13596   0.18393  -0.00032
  66        4PZ        -0.00009   0.21568   0.00014  -0.00019  -0.31549
  67        5PX        -0.02842  -0.00002  -0.08743  -0.05107   0.00003
  68        5PY         0.04607   0.00014  -0.05574   0.07877  -0.00020
  69        5PZ        -0.00004   0.12839   0.00007  -0.00008  -0.25396
  70        6XX        -0.01562   0.00000  -0.01497  -0.01491   0.00001
  71        6YY         0.01457  -0.00003   0.01496   0.01512   0.00002
  72        6ZZ         0.00016   0.00003   0.00000   0.00000  -0.00002
  73        6XY         0.00576   0.00000   0.01178  -0.02811   0.00001
  74        6XZ         0.00000   0.00790  -0.00001   0.00002  -0.00148
  75        6YZ        -0.00001  -0.01368  -0.00001  -0.00002   0.01372
  76 6   C  1S         -0.00974   0.00001  -0.00251  -0.00159   0.00001
  77        2S          0.02312  -0.00001   0.01065   0.00677  -0.00003
  78        3S          0.02987   0.00000  -0.00282  -0.00187   0.00007
  79        4PX         0.15567  -0.00014   0.18489   0.11840  -0.00002
  80        4PY        -0.07308   0.00018   0.13718  -0.21355  -0.00010
  81        4PZ         0.00005   0.21570  -0.00005   0.00020  -0.20930
  82        5PX         0.06309  -0.00006   0.07901   0.05058   0.00006
  83        5PY        -0.00165   0.00010   0.05603  -0.08723  -0.00008
  84        5PZ         0.00000   0.12841  -0.00002   0.00009  -0.16848
  85        6XX        -0.00315   0.00001  -0.02418  -0.01552   0.00001
  86        6YY         0.00437   0.00000   0.02400   0.01540  -0.00004
  87        6ZZ        -0.00019  -0.00001   0.00000   0.00000   0.00003
  88        6XY        -0.01709   0.00001   0.01131  -0.01755   0.00000
  89        6XZ         0.00001   0.01580  -0.00001   0.00001  -0.00838
  90        6YZ        -0.00001  -0.00001  -0.00002  -0.00002  -0.02287
  91 7   H  1S         -0.22284   0.00001   0.19537  -0.10062   0.00002
  92        2S         -0.08130   0.00000   0.10286  -0.05300  -0.00001
  93        3PX        -0.00761   0.00000   0.00162  -0.00843   0.00000
  94        3PY        -0.01274   0.00000   0.00997  -0.00074   0.00000
  95        3PZ         0.00001   0.00722   0.00000   0.00000   0.00390
  96 8   H  1S         -0.10270  -0.00010  -0.01020   0.21952   0.00004
  97        2S         -0.03745  -0.00006  -0.00539   0.11560   0.00004
  98        3PX        -0.00020   0.00000   0.00699  -0.00498  -0.00001
  99        3PY        -0.00801   0.00001   0.00347   0.00937   0.00002
 100        3PZ         0.00001   0.00722   0.00000  -0.00001   0.01162
 101 9   H  1S          0.11992   0.00001  -0.18483  -0.11887  -0.00003
 102        2S          0.04373   0.00001  -0.09732  -0.06258  -0.00005
 103        3PX        -0.00799   0.00000   0.00893   0.00575   0.00000
 104        3PY        -0.00398   0.00000  -0.00421   0.00657   0.00000
 105        3PZ         0.00000   0.00722   0.00001   0.00000   0.00772
 106 10  H  1S          0.22286  -0.00003   0.19521  -0.10093   0.00005
 107        2S          0.08129  -0.00002   0.10278  -0.05313   0.00005
 108        3PX        -0.00761   0.00000  -0.00162   0.00845   0.00000
 109        3PY        -0.01274   0.00000  -0.00996   0.00076   0.00000
 110        3PZ         0.00000   0.00722   0.00000   0.00001  -0.00391
 111 11  H  1S          0.10314   0.00002  -0.01052   0.21952  -0.00005
 112        2S          0.03766   0.00000  -0.00553   0.11560  -0.00005
 113        3PX        -0.00019   0.00000  -0.00700   0.00499   0.00000
 114        3PY        -0.00804   0.00001  -0.00346  -0.00937  -0.00001
 115        3PZ         0.00001   0.00722   0.00000   0.00001  -0.01162
 116 12  H  1S         -0.12022   0.00010  -0.18503  -0.11859   0.00004
 117        2S         -0.04388   0.00005  -0.09741  -0.06246   0.00005
 118        3PX        -0.00800   0.00000  -0.00894  -0.00573   0.00000
 119        3PY        -0.00398   0.00001   0.00422  -0.00656   0.00000
 120        3PZ         0.00000   0.00722   0.00000   0.00001  -0.00771
                          21        22        23        24        25
[...]
 119        3PY         0.00000   0.00000   0.00000   0.00000   0.00000
 120        3PZ         0.00000   0.00000   0.00000   0.00000   0.00000
                         101       102       103       104       105
 101 9   H  1S          0.37948
 102        2S          0.09384   0.05519
 103        3PX         0.00000   0.00000   0.00257
 104        3PY         0.00000   0.00000   0.00000   0.00027
 105        3PZ         0.00000   0.00000   0.00000   0.00000   0.00038
 106 10  H  1S         -0.00015  -0.00200   0.00000  -0.00001   0.00000
 107        2S         -0.00200  -0.00382  -0.00005  -0.00011   0.00000
 108        3PX        -0.00001  -0.00003   0.00000   0.00000   0.00000
 109        3PY        -0.00001  -0.00012   0.00000   0.00000   0.00000
 110        3PZ         0.00000   0.00000   0.00000   0.00000   0.00000
 111 11  H  1S          0.00000  -0.00001   0.00000   0.00000   0.00000
 112        2S         -0.00001  -0.00015   0.00000   0.00000   0.00000
 113        3PX         0.00000   0.00000   0.00000   0.00000   0.00000
 114        3PY         0.00000   0.00000   0.00000   0.00000   0.00000
 115        3PZ         0.00000   0.00000   0.00000   0.00000   0.00000
 116 12  H  1S          0.00000   0.00000   0.00000   0.00000   0.00000
 117        2S          0.00000   0.00004   0.00000   0.00000   0.00000
 118        3PX         0.00000   0.00000   0.00000   0.00000   0.00000
 119        3PY         0.00000   0.00000   0.00000   0.00000   0.00000
 120        3PZ         0.00000   0.00000   0.00000   0.00000   0.00000
                         106       107       108       109       110
 106 10  H  1S          0.37948
 107        2S          0.09384   0.05518
 108        3PX         0.00000   0.00000   0.00084
 109        3PY         0.00000   0.00000   0.00000   0.00199
 110        3PZ         0.00000   0.00000   0.00000   0.00000   0.00038
 111 11  H  1S         -0.00015  -0.00200  -0.00002   0.00000   0.00000
 112        2S         -0.00200  -0.00383  -0.00016   0.00000   0.00000
 113        3PX        -0.00002  -0.00016   0.00000   0.00000   0.00000
 114        3PY         0.00000   0.00000   0.00000   0.00000   0.00000
 115        3PZ         0.00000   0.00000   0.00000   0.00000   0.00000
 116 12  H  1S          0.00000  -0.00001   0.00000   0.00000   0.00000
 117        2S         -0.00001  -0.00015   0.00000   0.00000   0.00000
 118        3PX         0.00000   0.00000   0.00000   0.00000   0.00000
 119        3PY         0.00000   0.00000   0.00000   0.00000   0.00000
 120        3PZ         0.00000   0.00000   0.00000   0.00000   0.00000
                         111       112       113       114       115
 111 11  H  1S          0.37946
 112        2S          0.09385   0.05521
 113        3PX         0.00000   0.00000   0.00084
 114        3PY         0.00000   0.00000   0.00000   0.00199
 115        3PZ         0.00000   0.00000   0.00000   0.00000   0.00038
 116 12  H  1S         -0.00015  -0.00200  -0.00001  -0.00001   0.00000
 117        2S         -0.00200  -0.00383  -0.00003  -0.00012   0.00000
 118        3PX         0.00000  -0.00005   0.00000   0.00000   0.00000
 119        3PY        -0.00001  -0.00011   0.00000   0.00000   0.00000
 120        3PZ         0.00000   0.00000   0.00000   0.00000   0.00000
                         116       117       118       119       120
 116 12  H  1S          0.37952
 117        2S          0.09385   0.05520
 118        3PX         0.00000   0.00000   0.00257
 119        3PY         0.00000   0.00000   0.00000   0.00027
 120        3PZ         0.00000   0.00000   0.00000   0.00000   0.00038
     Gross orbital populations:
                           1
   1 1   C  1S          1.99723
   2        2S          0.66765
   3        3S          0.42875
   4        4PX         0.74505
   5        4PY         0.72503
   6        4PZ         0.52822
   7        5PX         0.19612
   8        5PY         0.20348
   9        5PZ         0.44561
  10        6XX         0.03144
  11        6YY         0.02275
  12        6ZZ        -0.01189
  13        6XY         0.02963
  14        6XZ         0.01277
  15        6YZ         0.00795
  16 2   C  1S          1.99723
  17        2S          0.66766
  18        3S          0.42869
  19        4PX         0.74506
  20        4PY         0.72504
  21        4PZ         0.52825
  22        5PX         0.19614
  23        5PY         0.20343
  24        5PZ         0.44559
  25        6XX         0.03144
  26        6YY         0.02275
  27        6ZZ        -0.01189
  28        6XY         0.02963
  29        6XZ         0.01277
  30        6YZ         0.00795
  31 3   C  1S          1.99723
  32        2S          0.66766
  33        3S          0.42883
  34        4PX         0.71488
  35        4PY         0.75512
  36        4PZ         0.52820
  37        5PX         0.20726
  38        5PY         0.19239
  39        5PZ         0.44564
  40        6XX         0.02137
  41        6YY         0.03875
  42        6ZZ        -0.01189
  43        6XY         0.02370
  44        6XZ         0.00553
  45        6YZ         0.01519
  46 4   C  1S          1.99723
  47        2S          0.66766
  48        3S          0.42886
  49        4PX         0.74512
  50        4PY         0.72483
  51        4PZ         0.52819
  52        5PX         0.19600
  53        5PY         0.20366
  54        5PZ         0.44565
  55        6XX         0.03144
  56        6YY         0.02273
  57        6ZZ        -0.01189
  58        6XY         0.02965
  59        6XZ         0.01278
  60        6YZ         0.00794
  61 5   C  1S          1.99723
  62        2S          0.66766
  63        3S          0.42877
  64        4PX         0.74513
  65        4PY         0.72489
  66        4PZ         0.52824
  67        5PX         0.19601
  68        5PY         0.20362
  69        5PZ         0.44561
  70        6XX         0.03144
  71        6YY         0.02273
  72        6ZZ        -0.01189
  73        6XY         0.02965
  74        6XZ         0.01278
  75        6YZ         0.00794
  76 6   C  1S          1.99723
  77        2S          0.66766
  78        3S          0.42873
  79        4PX         0.71492
  80        4PY         0.75517
  81        4PZ         0.52822
  82        5PX         0.20721
  83        5PY         0.19237
  84        5PZ         0.44561
  85        6XX         0.02136
  86        6YY         0.03875
  87        6ZZ        -0.01189
  88        6XY         0.02370
  89        6XZ         0.00553
  90        6YZ         0.01519
  91 7   H  1S          0.75280
  92        2S          0.18636
  93        3PX         0.00817
  94        3PY         0.01746
  95        3PZ         0.00544
  96 8   H  1S          0.75279
  97        2S          0.18638
  98        3PX         0.00816
  99        3PY         0.01747
 100        3PZ         0.00543
 101 9   H  1S          0.75276
 102        2S          0.18637
 103        3PX         0.02211
 104        3PY         0.00352
 105        3PZ         0.00543
 106 10  H  1S          0.75275
 107        2S          0.18636
 108        3PX         0.00817
 109        3PY         0.01745
 110        3PZ         0.00543
 111 11  H  1S          0.75272
 112        2S          0.18639
 113        3PX         0.00817
 114        3PY         0.01745
 115        3PZ         0.00543
 116 12  H  1S          0.75281
 117        2S          0.18636
 118        3PX         0.02211
 119        3PY         0.00352
 120        3PZ         0.00544
          Condensed to atoms (all electrons):
               1          2          3          4          5          6
     1  C    4.705619   0.549626  -0.050823  -0.035319  -0.050838   0.549972
     2  C    0.549626   4.705578   0.549955  -0.050840  -0.035308  -0.050836
     3  C   -0.050823   0.549955   4.705745   0.549570  -0.050836  -0.035309
     4  C   -0.035319  -0.050840   0.549570   4.705805   0.549904  -0.050824
     5  C   -0.050838  -0.035308  -0.050836   0.549904   4.705727   0.549623
     6  C    0.549972  -0.050836  -0.035309  -0.050824   0.549623   4.705576
     7  H    0.422115  -0.036019   0.005981  -0.000478   0.005981  -0.036019
     8  H   -0.036024   0.422107  -0.036030   0.005978  -0.000479   0.005984
     9  H    0.005979  -0.036011   0.422111  -0.036019   0.005978  -0.000479
    10  H   -0.000478   0.005981  -0.036013   0.422110  -0.036018   0.005975
    11  H    0.005983  -0.000479   0.005975  -0.036034   0.422102  -0.036015
    12  H   -0.036019   0.005980  -0.000478   0.005981  -0.036021   0.422115
               7          8          9         10         11         12
     1  C    0.422115  -0.036024   0.005979  -0.000478   0.005983  -0.036019
     2  C   -0.036019   0.422107  -0.036011   0.005981  -0.000479   0.005980
     3  C    0.005981  -0.036030   0.422111  -0.036013   0.005975  -0.000478
     4  C   -0.000478   0.005978  -0.036019   0.422110  -0.036034   0.005981
     5  C    0.005981  -0.000479   0.005978  -0.036018   0.422102  -0.036021
     6  C   -0.036019   0.005984  -0.000479   0.005975  -0.036015   0.422115
     7  H    0.625623  -0.008325  -0.000172   0.000037  -0.000172  -0.008323
     8  H   -0.008325   0.625643  -0.008324  -0.000172   0.000037  -0.000172
     9  H   -0.000172  -0.008324   0.625569  -0.008314  -0.000172   0.000037
    10  H    0.000037  -0.000172  -0.008314   0.625554  -0.008315  -0.000172
    11  H   -0.000172   0.000037  -0.000172  -0.008315   0.625586  -0.008325
    12  H   -0.008323  -0.000172   0.000037  -0.000172  -0.008325   0.625629
 Mulliken charges:
               1
     1  C   -0.029792
     2  C   -0.029733
     3  C   -0.029848
     4  C   -0.029835
     5  C   -0.029814
     6  C   -0.029763
     7  H    0.029772
     8  H    0.029775
     9  H    0.029816
    10  H    0.029825
    11  H    0.029829
    12  H    0.029768
 Sum of Mulliken charges =   0.00000
 Mulliken charges with hydrogens summed into heavy atoms:
               1
     1  C   -0.000021
     2  C    0.000042
     3  C   -0.000032
     4  C   -0.000010
     5  C    0.000016
     6  C    0.000005
 Electronic spatial extent (au):  <R**2>=            776.3325
 Charge=              0.0000 electrons
 Dipole moment (field-independent basis, Debye):
    X=             -0.0001    Y=             -0.0002    Z=              0.0007  Tot=              0.0008
 Quadrupole moment (field-independent basis, Debye-Ang):
   XX=            -31.8022   YY=            -31.8046   ZZ=            -40.4867
   XY=              0.0007   XZ=              0.0039   YZ=             -0.0050
 Traceless Quadrupole moment (field-independent basis, Debye-Ang):
   XX=              2.8956   YY=              2.8933   ZZ=             -5.7889
   XY=              0.0007   XZ=              0.0039   YZ=             -0.0050
 Octapole moment (field-independent basis, Debye-Ang**2):
  XXX=             -4.6732  YYY=           -138.2932  ZZZ=              0.1246  XYY=             -1.5564
  XXY=            -46.0851  XXZ=              0.0379  XZZ=             -1.9840  YZZ=            -58.6798
  YYZ=              0.0180  XYZ=              0.0063
 Hexadecapole moment (field-independent basis, Debye-Ang**3):
 XXXX=           -271.8965 YYYY=           -672.3348 ZZZZ=            -46.4459 XXXY=             -6.7668
 XXXZ=             -0.0090 YYYX=             -6.7639 YYYZ=              0.1568 ZZZX=             -0.0302
 ZZZY=              0.2686 XXYY=           -157.3382 XXZZ=            -63.7324 YYZZ=           -148.6823
 XXYZ=              0.0700 YYXZ=              0.0113 ZZXY=             -2.8745
 N-N= 2.030307491037D+02 E-N=-9.425422647515D+02  KE= 2.300764689686D+02
 Orbital energies and kinetic energies (alpha):
                                 1                 2
   1         O               -11.243305         15.995976
   2         O               -11.242745         16.002244
   3         O               -11.242736         16.002239
   4         O               -11.241531         16.017318
   5         O               -11.241521         16.017314
   6         O               -11.240932         16.026370
   7         O                -1.147998          1.441267
   8         O                -1.011536          1.560407
   9         O                -1.011489          1.560239
  10         O                -0.818696          1.430452
  11         O                -0.818641          1.430281
  12         O                -0.701068          0.904582
  13         O                -0.634741          1.241880
  14         O                -0.615611          1.447913
  15         O                -0.581201          1.158975
  16         O                -0.581182          1.158990
  17         O                -0.499389          0.876705
  18         O                -0.488585          1.350714
  19         O                -0.488491          1.350683
  20         O                -0.334023          1.031871
  21         O                -0.333970          1.031815
  22         V                 0.136954          1.145684
  23         V                 0.137014          1.145632
  24         V                 0.179140          0.629141
  25         V                 0.218588          0.586171
  26         V                 0.218596          0.586154
  27         V                 0.254829          0.681541
  28         V                 0.254838          0.681531
  29         V                 0.270072          0.644174
  30         V                 0.350571          1.316043
  31         V                 0.436062          1.179419
  32         V                 0.436099          1.179292
  33         V                 0.467601          1.208410
  34         V                 0.467669          1.208165
  35         V                 0.580478          1.334078
  36         V                 0.584143          1.289427
  37         V                 0.660327          1.260725
  38         V                 0.666183          2.368554
  39         V                 0.679838          1.839622
  40         V                 0.711167          1.757481
  41         V                 0.711216          1.757542
  42         V                 0.731079          1.823988
  43         V                 0.731107          1.824093
  44         V                 0.731784          2.248277
  45         V                 0.731853          2.248380
  46         V                 0.742755          1.340932
  47         V                 0.822042          2.113950
  48         V                 0.822069          2.114091
  49         V                 0.839227          1.761679
  50         V                 0.839274          1.761812
  51         V                 0.879054          2.284066
  52         V                 0.879093          2.284233
  53         V                 0.909058          2.350182
  54         V                 0.978420          2.630817
  55         V                 0.980548          1.955657
  56         V                 1.047938          1.650758
  57         V                 1.081293          2.156073
  58         V                 1.081375          2.156184
  59         V                 1.125175          2.891344
  60         V                 1.151366          1.798130
  61         V                 1.187142          1.791916
  62         V                 1.187170          1.791942
  63         V                 1.241514          1.987577
  64         V                 1.241554          1.987864
  65         V                 1.244033          1.846314
  66         V                 1.244045          1.846063
  67         V                 1.286664          2.394680
  68         V                 1.318535          1.962041
  69         V                 1.318558          1.962047
  70         V                 1.459987          2.126113
  71         V                 1.508007          2.150552
  72         V                 1.508027          2.150556
  73         V                 1.721665          2.470023
  74         V                 1.739849          2.337353
  75         V                 1.739876          2.337404
  76         V                 1.763362          2.190502
  77         V                 1.785242          2.476926
  78         V                 1.858684          2.590066
  79         V                 1.858713          2.590119
  80         V                 1.877957          2.699871
  81         V                 1.877984          2.699824
  82         V                 1.890010          2.316979
  83         V                 1.932470          2.791802
  84         V                 1.944635          2.376510
  85         V                 1.944737          2.376556
  86         V                 1.951897          2.524407
  87         V                 1.951992          2.524483
  88         V                 2.087178          2.830148
  89         V                 2.087233          2.830279
  90         V                 2.106804          2.591356
  91         V                 2.146136          3.603876
  92         V                 2.146159          3.604057
  93         V                 2.150369          3.475781
  94         V                 2.150517          3.476330
  95         V                 2.166707          3.105945
  96         V                 2.254138          2.742176
  97         V                 2.254193          2.742231
  98         V                 2.261325          3.068897
  99         V                 2.261340          3.068993
 100         V                 2.306112          3.548639
 101         V                 2.499331          3.113825
 102         V                 2.546140          3.129743
 103         V                 2.620728          4.177364
 104         V                 2.724695          4.280351
 105         V                 2.724787          4.280763
 106         V                 2.743857          4.915938
 107         V                 2.743890          4.915158
 108         V                 2.798248          4.265252
 109         V                 2.798511          4.266633
 110         V                 2.863493          6.479184
 111         V                 2.996486          4.215755
 112         V                 3.103157          6.082314
 113         V                 3.103238          6.082085
 114         V                 3.111997          4.422654
 115         V                 3.164133          5.372858
 116         V                 3.164137          5.373384
 117         V                 3.615693          6.981971
 118         V                 3.615871          6.982294
 119         V                 3.837827          6.233522
 120         V                 4.467486          8.358581
 Total kinetic energy from orbitals= 2.300764689686D+02
 Unable to Open any file for archive entry.
 1\1\GINC-MEDUSA\SP\RCIS-Full\CC-pVDZ\C6H6\DBWY\24-Sep-2015\0\\# hf/cc-
 pVDZ gfinput pop=full nosymm cis(full,nstates=12,50-50) 6D\\Benzene cc
 -pVDZ\\0,1\C,0,-0.64863549,0.24130784,-0.00045\C,0,0.74652451,0.241307
 84,-0.00045\C,0,1.44406251,1.44905884,-0.00045\C,0,0.74640851,2.657567
 84,-0.001649\C,0,-0.64841649,2.65748984,-0.002128\C,0,-1.34601749,1.44
 928384,-0.001132\H,0,-1.19839449,-0.71100916,0.\H,0,1.29603251,-0.7112
 0516,0.000865\H,0,2.54374251,1.44913884,0.000184\H,0,1.29660851,3.6097
 1084,-0.001708\H,0,-1.19853849,3.60977084,-0.003081\H,0,-2.44562149,1.
 44946684,-0.001312\\Version=ES64L-GDVRevI.01+\HF=-230.7215382\MP2=-231
 .540451\RMSD=8.980e-09\PG=C01 [X(C6H6)]\\@
 The archive entry for this job was punched.


 IMAGINATION WILL OFTEN CARRY US TO WORLDS THAT NEVER WERE.
 BUT WITHOUT IT, WE GO NOWHERE. -- CARL SAGAN (COSMOS)
 Job cpu time:       0 days  0 hours  0 minutes 16.3 seconds.
 Elapsed time:       0 days  0 hours  0 minutes 16.1 seconds.
 File lengths (MBytes):  RWF=    451 Int=      0 D2E=      0 Chk=     15 Scr=      1
 Normal termination of Gaussian DV at Thu Sep 24 12:05:41 2015.
