 Entering Gaussian System, Link 0=gdv
 Input=benzene_sto3g_field.com
 Output=benzene_sto3g_field.log
 Initial command:
 /home/gauss/gdvi01p/gdv/l1.exe "/home/GauScr/Gau-32731.inp" -scrdir="/home/GauScr/"
 Entering Link 1 = /home/gauss/gdvi01p/gdv/l1.exe PID=     32732.
  
 Copyright (c) 1988,1990,1992,1993,1995,1998,2003,2009,2014,
            Gaussian, Inc.  All Rights Reserved.
  
 This is the private, development version of
 the Gaussian(R) DV system of programs. It is based on
 the Gaussian(R) 09 system (copyright 2009, Gaussian, Inc.),
 the Gaussian(R) 03 system (copyright 2003, Gaussian, Inc.),
 the Gaussian(R) 98 system (copyright 1998, Gaussian, Inc.),
 the Gaussian(R) 94 system (copyright 1995, Gaussian, Inc.),
 the Gaussian 92(TM) system (copyright 1992, Gaussian, Inc.),
 the Gaussian 90(TM) system (copyright 1990, Gaussian, Inc.),
 the Gaussian 88(TM) system (copyright 1988, Gaussian, Inc.),
 the Gaussian 86(TM) system (copyright 1986, Carnegie Mellon
 University), and the Gaussian 82(TM) system (copyright 1983,
 Carnegie Mellon University). Gaussian is a federally registered
 trademark of Gaussian, Inc.
  
 This software contains proprietary and confidential information,
 including trade secrets, belonging to Gaussian, Inc.
  
 This software is provided under written license and may be
 used, copied, transmitted, or stored only in accord with that
 written license.
  
 The following legend is applicable only to US Government
 contracts under FAR:
  
                    RESTRICTED RIGHTS LEGEND
  
 Use, reproduction and disclosure by the US Government is
 subject to restrictions as set forth in subparagraphs (a)
 and (c) of the Commercial Computer Software - Restricted
 Rights clause in FAR 52.227-19.
  
 Gaussian, Inc.
 340 Quinnipiac St., Bldg. 40, Wallingford CT 06492
  
  
 ---------------------------------------------------------------
 Warning -- This program may not be used in any manner that
 competes with the business of Gaussian, Inc. or will provide
 assistance to any competitor of Gaussian, Inc.  The licensee
 of this program is prohibited from giving any competitor of
 Gaussian, Inc. access to this program.  By using this program,
 the user acknowledges that Gaussian, Inc. is engaged in the
 business of creating and licensing software in the field of
 computational chemistry and represents and warrants to the
 licensee that it is not a competitor of Gaussian, Inc. and that
 it will not use this program in any manner prohibited above.
 ---------------------------------------------------------------
  

 Cite this work as:
 Gaussian Development Version, Revision I.01+,
 M. J. Frisch, G. W. Trucks, H. B. Schlegel, G. E. Scuseria, 
 M. A. Robb, J. R. Cheeseman, G. Scalmani, V. Barone, B. Mennucci, 
 G. A. Petersson, H. Nakatsuji, M. Caricato, X. Li, H. P. Hratchian, 
 A. F. Izmaylov, J. Bloino, B. G. Janesko, F. Lipparini, G. Zheng, 
 J. L. Sonnenberg, W. Liang, M. Hada, M. Ehara, K. Toyota, R. Fukuda, 
 J. Hasegawa, M. Ishida, T. Nakajima, Y. Honda, O. Kitao, H. Nakai, 
 T. Vreven, J. A. Montgomery, Jr., J. E. Peralta, F. Ogliaro, 
 M. Bearpark, J. J. Heyd, E. Brothers, K. N. Kudin, V. N. Staroverov, 
 T. Keith, R. Kobayashi, J. Normand, K. Raghavachari, A. Rendell, 
 J. C. Burant, S. S. Iyengar, J. Tomasi, M. Cossi, N. Rega, 
 J. M. Millam, M. Klene, J. E. Knox, J. B. Cross, V. Bakken, 
 C. Adamo, J. Jaramillo, R. Gomperts, R. E. Stratmann, O. Yazyev, 
 A. J. Austin, R. Cammi, C. Pomelli, J. W. Ochterski, R. L. Martin, 
 K. Morokuma, V. G. Zakrzewski, G. A. Voth, P. Salvador, 
 J. J. Dannenberg, S. Dapprich, P. V. Parandekar, N. J. Mayhall, 
 A. D. Daniels, O. Farkas, J. B. Foresman, J. V. Ortiz, 
 J. Cioslowski, and D. J. Fox, Gaussian, Inc., Wallingford CT, 2010.
 
 *******************************************
 Gaussian DV:  ES64L-GDVRevI.01+ 11-Sep-2014
                 29-Sep-2015 
 *******************************************
 -----------------------------------------------
 # hf/sto-3G gfinput pop=full nosymm Field=X-100
 -----------------------------------------------
 1/38=1,172=1/1;
 2/12=2,15=1,17=6,18=5,40=1/2;
 3/6=3,11=9,14=1,15=-100,24=10,25=1,30=1/1,2,3;
 4//1;
 5/5=2,38=5/2;
 6/7=3,28=1/1;
 99/5=1,9=1/99;
 --------------
 Benzene STO-3G
 --------------
 Symbolic Z-matrix:
 Charge =  0 Multiplicity = 1
 C                    -0.64864   0.24131  -0.00045 
 C                     0.74652   0.24131  -0.00045 
 C                     1.44406   1.44906  -0.00045 
 C                     0.74641   2.65757  -0.00165 
 C                    -0.64842   2.65749  -0.00213 
 C                    -1.34602   1.44928  -0.00113 
 H                    -1.19839  -0.71101   0. 
 H                     1.29603  -0.71121   0.00087 
 H                     2.54374   1.44914   0.00018 
 H                     1.29661   3.60971  -0.00171 
 H                    -1.19854   3.60977  -0.00308 
 H                    -2.44562   1.44947  -0.00131 
 
                          Input orientation:                          
 ---------------------------------------------------------------------
 Center     Atomic      Atomic             Coordinates (Angstroms)
 Number     Number       Type             X           Y           Z
 ---------------------------------------------------------------------
      1          6           0       -0.648635    0.241308   -0.000450
      2          6           0        0.746525    0.241308   -0.000450
      3          6           0        1.444063    1.449059   -0.000450
      4          6           0        0.746409    2.657568   -0.001649
      5          6           0       -0.648416    2.657490   -0.002128
      6          6           0       -1.346017    1.449284   -0.001132
      7          1           0       -1.198394   -0.711009    0.000000
      8          1           0        1.296033   -0.711205    0.000865
      9          1           0        2.543743    1.449139    0.000184
     10          1           0        1.296609    3.609711   -0.001708
     11          1           0       -1.198538    3.609771   -0.003081
     12          1           0       -2.445621    1.449467   -0.001312
 ---------------------------------------------------------------------
                    Distance matrix (angstroms):
                    1          2          3          4          5
     1  C    0.000000
     2  C    1.395160   0.000000
     3  C    2.416205   1.394712   0.000000
     4  C    2.790065   2.416260   1.395427   0.000000
     5  C    2.416183   2.789946   2.416356   1.394825   0.000000
     6  C    1.394829   2.416183   2.790080   2.416236   1.395138
     7  H    1.099610   2.165553   3.412986   3.889675   3.413102
     8  H    2.165414   1.099655   2.165330   3.413316   3.889601
     9  H    3.413229   2.165375   1.099680   2.165806   3.413209
    10  H    3.889745   3.413024   2.165678   1.099680   2.165606
    11  H    3.413055   3.889707   3.413506   2.165528   1.099761
    12  H    2.165365   3.413128   3.889684   3.412999   2.165471
                    6          7          8          9         10
     6  C    0.000000
     7  H    2.165331   0.000000
     8  H    3.412938   2.494427   0.000000
     9  H    3.889760   4.320860   2.494768   0.000000
    10  H    3.413344   4.989355   4.320917   2.494678   0.000000
    11  H    2.165516   4.320781   4.989362   4.321228   2.495147
    12  H    1.099604   2.494641   4.320704   4.989364   4.320988
                   11         12
    11  H    0.000000
    12  H    2.494420   0.000000
 Symmetry turned off by external request.
 Stoichiometry    C6H6
 Framework group  C1[X(C6H6)]
 Deg. of freedom    30
 Full point group                 C1      NOp   1
 Rotational constants (GHZ):      5.6865650      5.6862640      2.8432074
 Standard basis: STO-3G (5D, 7F)
 The following finite field(s) will be applied:
 An electric field of             -0.0100  0.0000  0.0000
 AO basis set in the form of general basis input (Overlap normalization):
      1 0
 S   3 1.00       0.000000000000
      0.7161683735D+02  0.1543289673D+00
      0.1304509632D+02  0.5353281423D+00
      0.3530512160D+01  0.4446345422D+00
 SP   3 1.00       0.000000000000
      0.2941249355D+01 -0.9996722919D-01  0.1559162750D+00
      0.6834830964D+00  0.3995128261D+00  0.6076837186D+00
      0.2222899159D+00  0.7001154689D+00  0.3919573931D+00
 ****
      2 0
 S   3 1.00       0.000000000000
      0.7161683735D+02  0.1543289673D+00
      0.1304509632D+02  0.5353281423D+00
      0.3530512160D+01  0.4446345422D+00
 SP   3 1.00       0.000000000000
      0.2941249355D+01 -0.9996722919D-01  0.1559162750D+00
      0.6834830964D+00  0.3995128261D+00  0.6076837186D+00
      0.2222899159D+00  0.7001154689D+00  0.3919573931D+00
 ****
      3 0
 S   3 1.00       0.000000000000
      0.7161683735D+02  0.1543289673D+00
      0.1304509632D+02  0.5353281423D+00
      0.3530512160D+01  0.4446345422D+00
 SP   3 1.00       0.000000000000
      0.2941249355D+01 -0.9996722919D-01  0.1559162750D+00
      0.6834830964D+00  0.3995128261D+00  0.6076837186D+00
      0.2222899159D+00  0.7001154689D+00  0.3919573931D+00
 ****
      4 0
 S   3 1.00       0.000000000000
      0.7161683735D+02  0.1543289673D+00
      0.1304509632D+02  0.5353281423D+00
      0.3530512160D+01  0.4446345422D+00
 SP   3 1.00       0.000000000000
      0.2941249355D+01 -0.9996722919D-01  0.1559162750D+00
      0.6834830964D+00  0.3995128261D+00  0.6076837186D+00
      0.2222899159D+00  0.7001154689D+00  0.3919573931D+00
 ****
      5 0
 S   3 1.00       0.000000000000
      0.7161683735D+02  0.1543289673D+00
      0.1304509632D+02  0.5353281423D+00
      0.3530512160D+01  0.4446345422D+00
 SP   3 1.00       0.000000000000
      0.2941249355D+01 -0.9996722919D-01  0.1559162750D+00
      0.6834830964D+00  0.3995128261D+00  0.6076837186D+00
      0.2222899159D+00  0.7001154689D+00  0.3919573931D+00
 ****
      6 0
 S   3 1.00       0.000000000000
      0.7161683735D+02  0.1543289673D+00
      0.1304509632D+02  0.5353281423D+00
      0.3530512160D+01  0.4446345422D+00
 SP   3 1.00       0.000000000000
      0.2941249355D+01 -0.9996722919D-01  0.1559162750D+00
      0.6834830964D+00  0.3995128261D+00  0.6076837186D+00
      0.2222899159D+00  0.7001154689D+00  0.3919573931D+00
 ****
      7 0
 S   3 1.00       0.000000000000
      0.3425250914D+01  0.1543289673D+00
      0.6239137298D+00  0.5353281423D+00
      0.1688554040D+00  0.4446345422D+00
 ****
      8 0
 S   3 1.00       0.000000000000
      0.3425250914D+01  0.1543289673D+00
      0.6239137298D+00  0.5353281423D+00
      0.1688554040D+00  0.4446345422D+00
 ****
      9 0
 S   3 1.00       0.000000000000
      0.3425250914D+01  0.1543289673D+00
      0.6239137298D+00  0.5353281423D+00
      0.1688554040D+00  0.4446345422D+00
 ****
     10 0
 S   3 1.00       0.000000000000
      0.3425250914D+01  0.1543289673D+00
      0.6239137298D+00  0.5353281423D+00
      0.1688554040D+00  0.4446345422D+00
 ****
     11 0
 S   3 1.00       0.000000000000
      0.3425250914D+01  0.1543289673D+00
      0.6239137298D+00  0.5353281423D+00
      0.1688554040D+00  0.4446345422D+00
 ****
     12 0
 S   3 1.00       0.000000000000
      0.3425250914D+01  0.1543289673D+00
      0.6239137298D+00  0.5353281423D+00
      0.1688554040D+00  0.4446345422D+00
 ****

    36 basis functions,   108 primitive gaussians,    36 cartesian basis functions
    21 alpha electrons       21 beta electrons
       nuclear repulsion energy       203.0307491037 Hartrees.
 NAtoms=   12 NActive=   12 NUniq=   12 SFac= 1.00D+00 NAtFMM=   60 NAOKFM=F Big=F
 Integral buffers will be    131072 words long.
 Raffenetti 1 integral format.
 Two-electron integral symmetry is turned off.
 One-electron integrals computed using PRISM.
 NBasis=    36 RedAO= T EigKep=  1.72D-01  NBF=    36
 NBsUse=    36 1.00D-06 EigRej= -1.00D+00 NBFU=    36
 The nuclear repulsion energy is now       202.9918701540 hartrees.
 ExpMin= 1.69D-01 ExpMax= 7.16D+01 ExpMxC= 7.16D+01 IAcc=1 IRadAn=         1 AccDes= 0.00D+00
 Harris functional with IExCor=  205 and IRadAn=       1 diagonalized for initial guess.
 HarFok:  IExCor=  205 AccDes= 0.00D+00 IRadAn=         1 IDoV= 1 UseB2=F ITyADJ=14
 ICtDFT=  3500011 ScaDFX=  1.000000  1.000000  1.000000  1.000000
 FoFCou: FMM=F IPFlag=           0 FMFlag=      100000 FMFlg1=           0
         NFxFlg=           0 DoJE=T BraDBF=F KetDBF=T FulRan=T
         wScrn=  0.000000 ICntrl=       500 IOpCl=  0 I1Cent=   200000004 NGrid=           0
         NMat0=    1 NMatS0=      1 NMatT0=    0 NMatD0=    1 NMtDS0=    0 NMtDT0=    0
 Symmetry not used in FoFCou.
 Keep R1 ints in memory in canonical form, NReq=1044371.
 Requested convergence on RMS density matrix=1.00D-08 within 128 cycles.
 Requested convergence on MAX density matrix=1.00D-06.
 Requested convergence on             energy=1.00D-06.
 No special actions if energy rises.
 SCF Done:  E(RHF) =  -227.891738134     A.U. after   11 cycles
            NFock= 11  Conv=0.27D-08     -V/T= 2.0088

 **********************************************************************

            Population analysis using the SCF density.

 **********************************************************************

 Alpha  occ. eigenvalues --  -11.03433 -11.03128 -11.03121 -11.02509 -11.02504
 Alpha  occ. eigenvalues --  -11.02198  -1.08863  -0.95195  -0.95174  -0.76269
 Alpha  occ. eigenvalues --   -0.76231  -0.65712  -0.58708  -0.55146  -0.52986
 Alpha  occ. eigenvalues --   -0.52900  -0.45545  -0.42840  -0.42765  -0.27866
 Alpha  occ. eigenvalues --   -0.27790
 Alpha virt. eigenvalues --    0.26985   0.27042   0.50562   0.56260   0.63693
 Alpha virt. eigenvalues --    0.64008   0.70186   0.72706   0.73258   0.87600
 Alpha virt. eigenvalues --    0.87628   0.89509   0.89551   1.08896   1.14543
     Molecular Orbital Coefficients:
                           1         2         3         4         5
                           O         O         O         O         O
     Eigenvalues --   -11.03433 -11.03128 -11.03121 -11.02509 -11.02504
   1 1   C  1S          0.04436   0.74073   0.65823   0.01524  -0.01648
   2        2S         -0.00548   0.02681   0.02463   0.00359  -0.00711
   3        2PX         0.00218   0.00037   0.00015   0.00190  -0.00410
   4        2PY        -0.00389   0.00085   0.00099  -0.00010  -0.00024
   5        2PZ         0.00000   0.00000   0.00000   0.00000   0.00000
   6 2   C  1S         -0.00262   0.02094   0.01041  -0.43414   0.89073
   7        2S         -0.00015  -0.00450  -0.00441  -0.01588   0.03232
   8        2PX         0.00017   0.00326   0.00305   0.00041  -0.00084
   9        2PY        -0.00006   0.00006  -0.00018  -0.00058   0.00081
  10        2PZ         0.00000   0.00000   0.00000   0.00000   0.00000
  11 3   C  1S         -0.00340  -0.00020  -0.00359   0.02022   0.06085
  12        2S         -0.00017   0.00001   0.00006  -0.00255  -0.00732
  13        2PX         0.00020   0.00000   0.00009   0.00106   0.00306
  14        2PY         0.00000   0.00006   0.00000  -0.00511   0.00176
  15        2PZ         0.00000   0.00000   0.00000   0.00000   0.00000
  16 4   C  1S         -0.00263  -0.01981   0.01299   0.89150   0.43265
  17        2S         -0.00014   0.00395  -0.00490   0.03246   0.01562
  18        2PX         0.00017  -0.00288   0.00341  -0.00085  -0.00041
  19        2PY         0.00006   0.00008   0.00018  -0.00096  -0.00028
  20        2PZ         0.00000   0.00000   0.00000   0.00000   0.00000
  21 5   C  1S          0.04390  -0.65946   0.73965  -0.02245  -0.00371
  22        2S         -0.00550  -0.02377   0.02757  -0.00723  -0.00338
  23        2PX         0.00218  -0.00036   0.00019  -0.00403  -0.00205
  24        2PY         0.00389   0.00072  -0.00108   0.00007   0.00025
  25        2PZ         0.00000   0.00000   0.00000   0.00000   0.00000
  26 6   C  1S          0.99027  -0.00388  -0.06111   0.00164   0.00473
  27        2S          0.03562  -0.00073  -0.01234   0.00023   0.00065
  28        2PX         0.00099  -0.00020  -0.00339   0.00000   0.00001
  29        2PY         0.00000   0.00543  -0.00031   0.00024  -0.00008
  30        2PZ         0.00000   0.00000   0.00000   0.00000   0.00000
  31 7   H  1S         -0.00022  -0.00495  -0.00452  -0.00019   0.00016
  32 8   H  1S         -0.00007  -0.00003  -0.00005   0.00283  -0.00600
  33 9   H  1S         -0.00004  -0.00001  -0.00009  -0.00009  -0.00029
  34 10  H  1S         -0.00007   0.00003  -0.00006  -0.00593  -0.00297
  35 11  H  1S         -0.00021   0.00439  -0.00506   0.00025   0.00000
  36 12  H  1S         -0.00672   0.00003   0.00053  -0.00005  -0.00015
                           6         7         8         9        10
                           O         O         O         O         O
     Eigenvalues --   -11.02198  -1.08863  -0.95195  -0.95174  -0.76269
   1 1   C  1S          0.00345  -0.10836   0.12546   0.07462   0.07172
   2        2S          0.00069   0.27511  -0.34005  -0.20244  -0.21328
   3        2PX         0.00027   0.02623  -0.07182   0.09531  -0.13318
   4        2PY        -0.00005   0.05720   0.01557  -0.06589   0.13587
   5        2PZ         0.00000  -0.00003  -0.00001   0.00005  -0.00007
   6 2   C  1S         -0.04505  -0.10050   0.12866  -0.07173   0.04075
   7        2S         -0.00884   0.25400  -0.34730   0.19340  -0.11969
   8        2PX        -0.00209  -0.03609   0.06796   0.08602   0.17063
   9        2PY        -0.00402   0.05179   0.00435   0.07298   0.13536
  10        2PZ         0.00000   0.00001  -0.00005   0.00002  -0.00004
  11 3   C  1S          0.99012  -0.09674   0.01064  -0.14724  -0.11634
  12        2S          0.03677   0.24395  -0.02862   0.39650   0.34253
  13        2PX        -0.00165  -0.06284   0.00303  -0.04172   0.06450
  14        2PY        -0.00001  -0.00008   0.12242   0.00864  -0.02033
  15        2PZ         0.00000  -0.00004  -0.00006  -0.00005   0.00003
  16 4   C  1S         -0.04396  -0.10045  -0.11716  -0.08928   0.05919
  17        2S         -0.00879   0.25389   0.31631   0.24082  -0.17411
  18        2PX        -0.00209  -0.03616  -0.07972   0.07525   0.14921
  19        2PY         0.00402  -0.05173   0.01479  -0.07147  -0.13567
  20        2PZ         0.00000   0.00003  -0.00002   0.00009   0.00014
  21 5   C  1S          0.00344  -0.10833  -0.13492   0.05578   0.05513
  22        2S          0.00068   0.27504   0.36570  -0.15141  -0.16412
  23        2PX         0.00026   0.02627   0.05762   0.10454  -0.16011
  24        2PY         0.00005  -0.05717   0.00601   0.06739  -0.13534
  25        2PZ         0.00000   0.00007   0.00003  -0.00003   0.00007
  26 6   C  1S          0.00292  -0.11249  -0.01037   0.14458  -0.11077
  27        2S         -0.00007   0.28626   0.02818  -0.39290   0.32929
  28        2PX        -0.00022   0.06234   0.00126  -0.01747  -0.09803
  29        2PY         0.00000  -0.00004   0.13920   0.01012   0.02106
  30        2PZ         0.00000  -0.00001  -0.00010   0.00002  -0.00004
  31 7   H  1S         -0.00011   0.04970  -0.09560  -0.05866  -0.11417
  32 8   H  1S          0.00039   0.04197  -0.08903   0.04825  -0.06208
  33 9   H  1S         -0.00660   0.03856  -0.00692   0.09593   0.15636
  34 10  H  1S          0.00038   0.04194   0.08126   0.06044  -0.08810
  35 11  H  1S         -0.00011   0.04967   0.10301  -0.04428  -0.08640
  36 12  H  1S         -0.00007   0.05409   0.00844  -0.11767   0.19518
                          11        12        13        14        15
                           O         O         O         O         O
     Eigenvalues --    -0.76231  -0.65712  -0.58708  -0.55146  -0.52986
   1 1   C  1S          0.08729   0.00627   0.06092  -0.00294  -0.02588
   2        2S         -0.25849  -0.02859  -0.20717   0.01097   0.08180
   3        2PX         0.16471   0.11417   0.11404   0.28184   0.20388
   4        2PY        -0.00970   0.21927   0.12911  -0.17935   0.26568
   5        2PZ         0.00002  -0.00012  -0.00003   0.00006  -0.00019
   6 2   C  1S         -0.10832   0.01269  -0.06847   0.00399  -0.01871
   7        2S          0.32000  -0.04916   0.23042  -0.01417   0.05719
   8        2PX         0.10576  -0.11627   0.04892  -0.28505  -0.21158
   9        2PY        -0.01488   0.18522  -0.15123  -0.16128   0.22780
  10        2PZ         0.00011  -0.00018   0.00016  -0.00003  -0.00026
  11 3   C  1S          0.01039   0.01523   0.07229  -0.00002   0.00011
  12        2S         -0.03065  -0.05723  -0.24215   0.00014  -0.00037
  13        2PX        -0.00582  -0.20471  -0.15151   0.00037   0.00204
  14        2PY        -0.22873   0.00000   0.00004   0.32731  -0.06476
  15        2PZ         0.00012  -0.00012  -0.00007  -0.00015   0.00000
  16 4   C  1S          0.09950   0.01269  -0.06846  -0.00390   0.01887
  17        2S         -0.29414  -0.04918   0.23039   0.01401  -0.05766
  18        2PX        -0.13433  -0.11628   0.04933   0.28505   0.21260
  19        2PY         0.00926  -0.18512   0.15118  -0.16116   0.23041
  20        2PZ        -0.00009   0.00004  -0.00002   0.00027  -0.00007
  21 5   C  1S         -0.09860   0.00629   0.06094   0.00291   0.02569
  22        2S          0.29217  -0.02867  -0.20725  -0.01081  -0.08113
  23        2PX        -0.13875   0.11420   0.11379  -0.28186  -0.20457
  24        2PY         0.01438  -0.21912  -0.12900  -0.17969   0.26363
  25        2PZ        -0.00004   0.00019   0.00020   0.00011  -0.00032
  26 6   C  1S          0.00980   0.00244  -0.05712  -0.00001  -0.00017
  27        2S         -0.02912  -0.01621   0.19537   0.00005   0.00050
  28        2PX         0.00870   0.26165  -0.17665   0.00039   0.00234
  29        2PY         0.23660  -0.00010   0.00007   0.34021  -0.12210
  30        2PZ        -0.00016   0.00002   0.00004  -0.00026   0.00003
  31 7   H  1S         -0.14634  -0.18937  -0.24014   0.01852  -0.26463
  32 8   H  1S          0.15410  -0.16255   0.22153  -0.00896  -0.22786
  33 9   H  1S         -0.01403  -0.14987  -0.21517   0.00037   0.00148
  34 10  H  1S         -0.14088  -0.16251   0.22163   0.00912   0.22995
  35 11  H  1S          0.16424  -0.18931  -0.23997  -0.01861   0.26360
  36 12  H  1S         -0.01726  -0.20368   0.25138  -0.00029  -0.00201
                          16        17        18        19        20
                           O         O         O         O         O
     Eigenvalues --    -0.52900  -0.45545  -0.42840  -0.42765  -0.27866
   1 1   C  1S         -0.01179  -0.00001  -0.00586  -0.00968   0.00001
   2        2S          0.03807   0.00005   0.01117   0.03045  -0.00003
   3        2PX        -0.01957   0.00009  -0.00390   0.31550  -0.00010
   4        2PY         0.18690   0.00014   0.26384  -0.03702  -0.00018
   5        2PZ        -0.00002   0.34988  -0.00006  -0.00009  -0.46389
   6 2   C  1S          0.01195   0.00004   0.00747   0.00248  -0.00006
   7        2S         -0.03500  -0.00017  -0.01601  -0.01635   0.00025
   8        2PX         0.05499  -0.00022  -0.03804  -0.31613   0.00020
   9        2PY        -0.21998   0.00033  -0.32220  -0.00078  -0.00032
  10        2PZ         0.00026   0.31689   0.00027  -0.00018  -0.45789
  11 3   C  1S          0.02029  -0.00003   0.00010   0.00196   0.00000
  12        2S         -0.05990   0.00011   0.00072   0.00729   0.00001
  13        2PX         0.37175  -0.00027   0.02250   0.32645   0.00000
  14        2PY         0.00027   0.00011   0.34311  -0.02400   0.00006
  15        2PZ         0.00034   0.30120  -0.00010   0.00024  -0.02032
  16 4   C  1S          0.01174   0.00003  -0.00707   0.00353   0.00002
  17        2S         -0.03442  -0.00010   0.01371  -0.01867  -0.00009
  18        2PX         0.05195  -0.00020  -0.00627  -0.31808  -0.00023
  19        2PY         0.21699   0.00016  -0.31932   0.04592   0.00020
  20        2PZ         0.00002   0.31678   0.00014  -0.00021   0.43635
  21 5   C  1S         -0.01211   0.00001   0.00450  -0.01034   0.00001
  22        2S          0.03915  -0.00003  -0.00702   0.03144  -0.00003
  23        2PX        -0.01668  -0.00008   0.04755   0.31161  -0.00009
  24        2PY        -0.18934   0.00041   0.26674   0.00048   0.00049
  25        2PZ         0.00025   0.34983  -0.00031   0.00004   0.48195
  26 6   C  1S         -0.03205   0.00001   0.00083   0.01141   0.00000
  27        2S          0.10386  -0.00002  -0.00233  -0.03134  -0.00001
  28        2PX         0.35632  -0.00013  -0.01684  -0.23711   0.00001
  29        2PY         0.00024   0.00027  -0.31452   0.02184  -0.00008
  30        2PZ         0.00008   0.36728   0.00023  -0.00007   0.01937
  31 7   H  1S         -0.12305   0.00002  -0.25633  -0.12570  -0.00003
  32 8   H  1S          0.16532  -0.00015   0.26084  -0.17464   0.00002
  33 9   H  1S          0.27011  -0.00003   0.02262   0.32708  -0.00001
  34 10  H  1S          0.16216  -0.00005  -0.28273  -0.13643  -0.00007
  35 11  H  1S         -0.12578   0.00009   0.23667  -0.15972   0.00008
  36 12  H  1S         -0.29201   0.00009   0.01907   0.27061  -0.00004
                          21        22        23        24        25
                           O         V         V         V         V
     Eigenvalues --    -0.27790   0.26985   0.27042   0.50562   0.56260
   1 1   C  1S          0.00001   0.00004  -0.00003  -0.00002   0.05472
   2        2S         -0.00005  -0.00020   0.00011   0.00012  -0.34305
   3        2PX        -0.00004  -0.00009   0.00006  -0.00041   0.21211
   4        2PY        -0.00013  -0.00024  -0.00021   0.00016   0.29438
   5        2PZ        -0.25458  -0.40662  -0.52503   0.50682   0.00030
   6 2   C  1S          0.00003  -0.00003   0.00009  -0.00014   0.04689
   7        2S         -0.00013   0.00015  -0.00048   0.00085  -0.29182
   8        2PX        -0.00009   0.00003  -0.00029   0.00028  -0.08811
   9        2PY         0.00019  -0.00022   0.00042  -0.00065   0.23376
  10        2PZ         0.27662  -0.24642   0.60440  -0.53636  -0.00078
  11 3   C  1S         -0.00003  -0.00002  -0.00002  -0.00001   0.04428
  12        2S          0.00012   0.00012   0.00009   0.00009  -0.27428
  13        2PX        -0.00043  -0.00043  -0.00001  -0.00018  -0.19535
  14        2PY         0.00021   0.00029  -0.00016   0.00040  -0.00021
  15        2PZ         0.53621   0.64354  -0.05793   0.55144   0.00037
  16 4   C  1S          0.00001   0.00000  -0.00004  -0.00008   0.04692
  17        2S         -0.00003   0.00001   0.00020   0.00050  -0.29197
  18        2PX        -0.00018   0.00019   0.00028   0.00027  -0.08831
  19        2PY         0.00020  -0.00017  -0.00029  -0.00003  -0.23402
  20        2PZ         0.30954  -0.34933  -0.55154  -0.53613  -0.00043
  21 5   C  1S          0.00000   0.00002   0.00003  -0.00002   0.05475
  22        2S          0.00000  -0.00007  -0.00014   0.00011  -0.34321
  23        2PX         0.00004   0.00006  -0.00017  -0.00042   0.21245
  24        2PY        -0.00021  -0.00024   0.00058   0.00062  -0.29483
  25        2PZ        -0.21866  -0.30632   0.58924   0.50674   0.00076
  26 6   C  1S          0.00003  -0.00004  -0.00001  -0.00003   0.06033
  27        2S         -0.00012   0.00022   0.00003   0.00017  -0.37913
  28        2PX        -0.00001  -0.00002   0.00001  -0.00022   0.42515
  29        2PY        -0.00038   0.00048   0.00007  -0.00029  -0.00018
  30        2PZ        -0.52456   0.66616  -0.05940  -0.49249  -0.00035
  31 7   H  1S          0.00002   0.00008  -0.00001  -0.00036   0.55653
  32 8   H  1S          0.00004  -0.00004   0.00026  -0.00070   0.42623
  33 9   H  1S         -0.00007  -0.00003  -0.00003  -0.00020   0.36820
  34 10  H  1S          0.00006   0.00004  -0.00014  -0.00052   0.42664
  35 11  H  1S         -0.00001   0.00004  -0.00001  -0.00042   0.55713
  36 12  H  1S          0.00005  -0.00011  -0.00004  -0.00043   0.63057
                          26        27        28        29        30
                           V         V         V         V         V
     Eigenvalues --     0.63693   0.64008   0.70186   0.72706   0.73258
   1 1   C  1S         -0.03598   0.00028   0.14007  -0.14050   0.02037
   2        2S          0.22880   0.00008  -0.87501   0.90496  -0.13938
   3        2PX        -0.10620  -0.30427   0.19264   0.16350   0.30961
   4        2PY        -0.51336  -0.05786  -0.00001  -0.07225  -0.20395
   5        2PZ         0.00018   0.00013  -0.00001   0.00016   0.00035
   6 2   C  1S         -0.02124   0.02844  -0.07407   0.13676   0.12472
   7        2S          0.13657  -0.18049   0.45289  -0.87629  -0.79365
   8        2PX         0.11641  -0.40654  -0.07608   0.18757  -0.25283
   9        2PY        -0.46253   0.15247  -0.11616   0.14601  -0.13879
  10        2PZ         0.00050  -0.00039   0.00035  -0.00056  -0.00049
  11 3   C  1S         -0.00029   0.03430   0.04081   0.00116  -0.19476
  12        2S          0.00199  -0.21854  -0.24167  -0.00743   1.24027
  13        2PX         0.00993  -0.57333  -0.01099  -0.00118   0.03917
  14        2PY        -0.31454  -0.00433  -0.00100  -0.36642  -0.00121
  15        2PZ         0.00013  -0.00034  -0.00016   0.00030   0.00002
  16 4   C  1S          0.01999   0.02960  -0.07473  -0.13772   0.12336
  17        2S         -0.12876  -0.18771   0.45704   0.88236  -0.78489
  18        2PX        -0.10232  -0.40916  -0.07687  -0.18452  -0.25655
  19        2PY        -0.45837  -0.16694   0.11658   0.14264   0.14028
  20        2PZ         0.00009  -0.00015   0.00008   0.00002  -0.00038
  21 5   C  1S          0.03570   0.00100   0.14083   0.13946   0.02230
  22        2S         -0.22705  -0.00464  -0.87985  -0.89824  -0.15188
  23        2PX         0.11535  -0.29945   0.19237  -0.16833   0.30872
  24        2PY        -0.51562   0.04062  -0.00054  -0.07396   0.20162
  25        2PZ         0.00058  -0.00007  -0.00004  -0.00014   0.00001
  26 6   C  1S          0.00068  -0.03199  -0.17417   0.00092  -0.09705
  27        2S         -0.00425   0.20352   1.09470  -0.00595   0.63635
  28        2PX         0.00731  -0.50739  -0.08635  -0.00095   0.06196
  29        2PY        -0.27945  -0.00522   0.00142   0.46561   0.00313
  30        2PZ         0.00017  -0.00008  -0.00017  -0.00030  -0.00024
  31 7   H  1S         -0.59857  -0.19906   0.52675  -0.40323   0.03678
  32 8   H  1S         -0.53480   0.42720  -0.30504   0.45345   0.39499
  33 9   H  1S         -0.01118   0.70164   0.15438   0.00476  -0.65236
  34 10  H  1S          0.51993   0.44507  -0.30699  -0.45501   0.39143
  35 11  H  1S          0.60403  -0.17998   0.52928   0.39913   0.04395
  36 12  H  1S          0.00921  -0.58659  -0.61119   0.00183  -0.22569
                          31        32        33        34        35
                           V         V         V         V         V
     Eigenvalues --     0.87600   0.87628   0.89509   0.89551   1.08896
   1 1   C  1S          0.03632   0.01690  -0.07054   0.05934  -0.00294
   2        2S         -0.26004  -0.11890   0.50762  -0.42410   0.02166
   3        2PX        -0.49097   0.08934  -0.47832  -0.52647   0.64214
   4        2PY        -0.62222  -0.24413   0.30123   0.37448  -0.36775
   5        2PZ         0.00034   0.00006  -0.00030  -0.00024   0.00010
   6 2   C  1S         -0.03488   0.02183  -0.09070  -0.03040  -0.00259
   7        2S          0.24961  -0.16030   0.64570   0.21922   0.01920
   8        2PX        -0.42987   0.09745   0.28482  -0.68052   0.67057
   9        2PY         0.37048  -0.63310   0.04718  -0.38395   0.38313
  10        2PZ        -0.00029   0.00047   0.00046   0.00017   0.00007
  11 3   C  1S         -0.01384  -0.03633  -0.01610  -0.09747  -0.00009
  12        2S          0.10045   0.26467   0.11411   0.69222   0.00043
  13        2PX        -0.26486  -0.75571   0.02843   0.12054  -0.00245
  14        2PY         0.31397  -0.10274   0.79771  -0.14047   0.78781
  15        2PZ        -0.00035  -0.00056  -0.00049  -0.00014  -0.00034
  16 4   C  1S          0.04043  -0.00304   0.07473  -0.05982   0.00297
  17        2S         -0.29177   0.01900  -0.53082   0.42876  -0.02173
  18        2PX         0.38247  -0.19793  -0.49492  -0.55630  -0.66687
  19        2PY         0.69338   0.25885   0.16153   0.33689   0.38714
  20        2PZ        -0.00023  -0.00015  -0.00037  -0.00031  -0.00064
  21 5   C  1S         -0.01633   0.03717   0.08573   0.03333   0.00241
  22        2S          0.11842  -0.26441  -0.61593  -0.23719  -0.01794
  23        2PX         0.42962  -0.22822   0.27426  -0.66637  -0.63904
  24        2PY        -0.33834   0.58627   0.15165  -0.44245  -0.37273
  25        2PZ         0.00039  -0.00064  -0.00017   0.00011   0.00021
  26 6   C  1S         -0.01180  -0.03643   0.01600   0.08995   0.00024
  27        2S          0.08398   0.25916  -0.11514  -0.64706  -0.00171
  28        2PX         0.26701   0.75600  -0.00979  -0.01092  -0.00307
  29        2PY        -0.16307   0.06568   0.85984  -0.14574  -0.72420
  30        2PZ         0.00010   0.00000  -0.00053   0.00028   0.00055
  31 7   H  1S         -0.49847  -0.08080  -0.16120   0.19481  -0.00480
  32 8   H  1S          0.32243  -0.40665  -0.31204  -0.07221  -0.00788
  33 9   H  1S          0.17162   0.49780  -0.06418  -0.34887   0.00141
  34 10  H  1S         -0.50735  -0.10676   0.27564  -0.16442   0.00554
  35 11  H  1S          0.34206  -0.37232   0.21986   0.12109   0.00722
  36 12  H  1S          0.16868   0.46981   0.03256   0.21552  -0.00132
                          36
                           V
     Eigenvalues --     1.14543
   1 1   C  1S          0.06371
   2        2S         -0.48216
   3        2PX        -0.33008
   4        2PY        -0.57365
   5        2PZ         0.00032
   6 2   C  1S         -0.06361
   7        2S          0.48129
   8        2PX        -0.33472
   9        2PY         0.59003
  10        2PZ        -0.00033
  11 3   C  1S          0.06339
  12        2S         -0.47956
  13        2PX         0.68677
  14        2PY         0.00365
  15        2PZ         0.00047
  16 4   C  1S         -0.06352
  17        2S          0.48049
  18        2PX        -0.34056
  19        2PY        -0.58628
  20        2PZ         0.00023
  21 5   C  1S          0.06376
  22        2S         -0.48253
  23        2PX        -0.33522
  24        2PY         0.57035
  25        2PZ        -0.00058
  26 6   C  1S         -0.06374
  27        2S          0.48248
  28        2PX         0.65379
  29        2PY        -0.00298
  30        2PZ        -0.00001
  31 7   H  1S         -0.25694
  32 8   H  1S          0.27224
  33 9   H  1S         -0.28063
  34 10  H  1S          0.27225
  35 11  H  1S         -0.25660
  36 12  H  1S          0.24968
     Density Matrix:
                           1         2         3         4         5
   1 1   C  1S          2.06988
   2        2S         -0.21038   0.79815
   3        2PX        -0.00119  -0.00017   0.61360
   4        2PY         0.00070  -0.01388   0.00283   0.59968
   5        2PZ        -0.00001   0.00006   0.00008   0.00008   0.80484
   6 2   C  1S          0.02422  -0.06343  -0.11000  -0.00038   0.00006
   7        2S         -0.06281   0.09459   0.28488   0.00710  -0.00026
   8        2PX         0.11193  -0.29844  -0.46953   0.00633  -0.00017
   9        2PY        -0.00063   0.00772  -0.00455   0.00240   0.00032
  10        2PZ         0.00002  -0.00006  -0.00007   0.00025   0.50573
  11 3   C  1S         -0.00463   0.01476   0.02027   0.00964  -0.00001
  12        2S          0.01445  -0.03752  -0.07020  -0.04198   0.00001
  13        2PX        -0.02004   0.07923   0.08020   0.01475   0.00000
  14        2PY        -0.01308   0.04286   0.05436   0.03270  -0.00007
  15        2PZ        -0.00001   0.00002   0.00005  -0.00001  -0.04339
  16 4   C  1S         -0.00436   0.01526   0.00595   0.01013  -0.00002
  17        2S          0.01514  -0.05185  -0.02157  -0.03645   0.00007
  18        2PX        -0.00590   0.02135  -0.03073   0.03875   0.00019
  19        2PY        -0.01037   0.03781   0.03903   0.01422  -0.00020
  20        2PZ         0.00001  -0.00005  -0.00011  -0.00014  -0.34077
  21 5   C  1S         -0.00467   0.01471  -0.00161   0.02268  -0.00001
  22        2S          0.01472  -0.03822  -0.00167  -0.08412   0.00005
  23        2PX        -0.00162  -0.00163   0.01663   0.01785  -0.00002
  24        2PY        -0.02269   0.08414  -0.01783   0.09276  -0.00012
  25        2PZ         0.00003  -0.00008  -0.00003  -0.00013  -0.09101
  26 6   C  1S          0.02436  -0.06356   0.05605  -0.09652   0.00003
  27        2S         -0.06387   0.09697  -0.14380   0.25865  -0.00005
  28        2PX        -0.05499   0.14858  -0.11407   0.19474  -0.00012
  29        2PY         0.09600  -0.24803   0.21246  -0.35029   0.00058
  30        2PZ        -0.00007   0.00023  -0.00010   0.00050   0.50612
  31 7   H  1S         -0.10845   0.28466  -0.28063  -0.48203   0.00026
  32 8   H  1S          0.02715  -0.10116  -0.11171   0.05623  -0.00002
  33 9   H  1S         -0.01711   0.06659   0.08819   0.00238  -0.00001
  34 10  H  1S         -0.00189   0.00676   0.00124   0.00457   0.00000
  35 11  H  1S         -0.01728   0.06609  -0.04219   0.07951  -0.00004
  36 12  H  1S          0.02758  -0.10074   0.11338  -0.06911   0.00003
                           6         7         8         9        10
   6 2   C  1S          2.07015
   7        2S         -0.21156   0.80281
   8        2PX        -0.00290   0.02006   0.59997
   9        2PY         0.00233  -0.02179  -0.00904   0.62774
  10        2PZ         0.00005  -0.00024  -0.00006   0.00009   0.77321
  11 3   C  1S          0.02413  -0.06282  -0.05417  -0.09626   0.00000
  12        2S         -0.06251   0.09244   0.13541   0.25393   0.00002
  13        2PX         0.05692  -0.15603  -0.11697  -0.20268  -0.00031
  14        2PY         0.09579  -0.24986  -0.20730  -0.35264   0.00028
  15        2PZ         0.00005  -0.00022  -0.00021   0.00034   0.50616
  16 4   C  1S         -0.00463   0.01459   0.00154   0.02328  -0.00001
  17        2S          0.01460  -0.03742   0.00186  -0.08647   0.00006
  18        2PX         0.00155   0.00182   0.01392  -0.02045   0.00003
  19        2PY        -0.02329   0.08647   0.02044   0.10019  -0.00003
  20        2PZ         0.00001  -0.00002   0.00001  -0.00010  -0.02757
  21 5   C  1S         -0.00436   0.01513  -0.00592   0.01035  -0.00001
  22        2S          0.01526  -0.05182   0.02145  -0.03772   0.00004
  23        2PX         0.00593  -0.02147  -0.03070  -0.03892   0.00006
  24        2PY        -0.01014   0.03650  -0.03881   0.01422  -0.00033
  25        2PZ        -0.00003   0.00015   0.00017  -0.00023  -0.34061
  26 6   C  1S         -0.00465   0.01451  -0.02111   0.01063   0.00000
  27        2S          0.01482  -0.03793   0.07578  -0.04646   0.00001
  28        2PX         0.01821  -0.07043   0.07207  -0.01712   0.00002
  29        2PY        -0.01261   0.03930  -0.05417   0.03846  -0.00007
  30        2PZ         0.00000   0.00001   0.00006  -0.00007  -0.07517
  31 7   H  1S          0.02711  -0.09918   0.11076   0.06466   0.00001
  32 8   H  1S         -0.10891   0.29287   0.27435  -0.47948   0.00049
  33 9   H  1S          0.02668  -0.09940  -0.10265  -0.06307  -0.00004
  34 10  H  1S         -0.01705   0.06547   0.04111   0.07986   0.00003
  35 11  H  1S         -0.00208   0.00750  -0.00320   0.00293  -0.00002
  36 12  H  1S         -0.01722   0.06495  -0.09173   0.00531   0.00001
                          11        12        13        14        15
  11 3   C  1S          2.07029
  12        2S         -0.21224   0.80556
  13        2PX        -0.00526   0.03752   0.64009
  14        2PY         0.00001   0.00013   0.00001   0.59489
  15        2PZ        -0.00004   0.00016  -0.00014   0.00004   0.75732
  16 4   C  1S          0.02409  -0.06244   0.05685  -0.09573   0.00011
  17        2S         -0.06274   0.09242  -0.15599   0.24986  -0.00031
  18        2PX        -0.05412   0.13538  -0.11699   0.20724  -0.00049
  19        2PY         0.09621  -0.25400   0.20267  -0.35286   0.00061
  20        2PZ        -0.00012   0.00034  -0.00056   0.00058   0.50506
  21 5   C  1S         -0.00463   0.01446  -0.02003   0.01310  -0.00002
  22        2S          0.01476  -0.03754   0.07919  -0.04294   0.00006
  23        2PX         0.02026  -0.07019   0.08016  -0.05442   0.00010
  24        2PY        -0.00964   0.04199  -0.01474   0.03271  -0.00007
  25        2PZ         0.00002  -0.00006   0.00006  -0.00003  -0.04335
  26 6   C  1S         -0.00436   0.01507  -0.01201   0.00001   0.00002
  27        2S          0.01533  -0.05184   0.04390  -0.00006  -0.00009
  28        2PX         0.01165  -0.04179   0.03666  -0.00004   0.00000
  29        2PY         0.00001  -0.00004   0.00003  -0.05319  -0.00023
  30        2PZ         0.00002  -0.00008   0.00025  -0.00009  -0.34210
  31 7   H  1S         -0.01711   0.06467  -0.05081  -0.07639   0.00000
  32 8   H  1S          0.02669  -0.09853  -0.00056   0.12213  -0.00002
  33 9   H  1S         -0.10907   0.29658   0.54942   0.00001   0.00030
  34 10  H  1S          0.02668  -0.09861  -0.00049  -0.12216   0.00008
  35 11  H  1S         -0.01712   0.06473  -0.05085   0.07649  -0.00007
  36 12  H  1S         -0.00218   0.00789  -0.00392   0.00002   0.00006
                          16        17        18        19        20
  16 4   C  1S          2.07015
  17        2S         -0.21160   0.80298
  18        2PX        -0.00289   0.02019   0.59997
  19        2PY        -0.00235   0.02170   0.00903   0.62772
  20        2PZ         0.00002  -0.00010  -0.00011   0.00009   0.77314
  21 5   C  1S          0.02424  -0.06286   0.11197   0.00061   0.00006
  22        2S         -0.06348   0.09462  -0.29841  -0.00762  -0.00018
  23        2PX        -0.11004   0.28490  -0.46942   0.00464  -0.00034
  24        2PY         0.00037  -0.00706  -0.00639   0.00249   0.00045
  25        2PZ        -0.00001  -0.00002  -0.00037   0.00030   0.50686
  26 6   C  1S         -0.00465   0.01451  -0.02110  -0.01062   0.00000
  27        2S          0.01483  -0.03794   0.07574   0.04646  -0.00004
  28        2PX         0.01822  -0.07044   0.07206   0.01712   0.00003
  29        2PY         0.01263  -0.03936   0.05416   0.03846  -0.00008
  30        2PZ        -0.00001   0.00002   0.00000  -0.00009  -0.07515
  31 7   H  1S         -0.00208   0.00750  -0.00315  -0.00297   0.00001
  32 8   H  1S         -0.01707   0.06556   0.04115  -0.08000   0.00008
  33 9   H  1S          0.02667  -0.09943  -0.10263   0.06316  -0.00013
  34 10  H  1S         -0.10893   0.29291   0.27449   0.47935  -0.00011
  35 11  H  1S          0.02712  -0.09913   0.11075  -0.06468   0.00013
  36 12  H  1S         -0.01721   0.06492  -0.09166  -0.00527  -0.00005
                          21        22        23        24        25
  21 5   C  1S          2.06988
  22        2S         -0.21038   0.79815
  23        2PX        -0.00119  -0.00032   0.61354
  24        2PY        -0.00069   0.01383  -0.00284   0.59966
  25        2PZ         0.00001  -0.00005  -0.00001   0.00022   0.80492
  26 6   C  1S          0.02434  -0.06352   0.05603   0.09649  -0.00009
  27        2S         -0.06383   0.09697  -0.14376  -0.25867   0.00027
  28        2PX        -0.05499   0.14864  -0.11413  -0.19481   0.00012
  29        2PY        -0.09597   0.24803  -0.21240  -0.35033   0.00061
  30        2PZ         0.00008  -0.00021   0.00008   0.00073   0.50504
  31 7   H  1S         -0.01728   0.06613  -0.04219  -0.07956   0.00007
  32 8   H  1S         -0.00188   0.00674   0.00117  -0.00459  -0.00005
  33 9   H  1S         -0.01709   0.06651   0.08808  -0.00235   0.00003
  34 10  H  1S          0.02714  -0.10107  -0.11165  -0.05625   0.00000
  35 11  H  1S         -0.10843   0.28466  -0.28074   0.48200  -0.00043
  36 12  H  1S          0.02758  -0.10080   0.11335   0.06914  -0.00007
                          26        27        28        29        30
  26 6   C  1S          2.06976
  27        2S         -0.20983   0.79603
  28        2PX        -0.00167  -0.00397   0.59407
  29        2PY         0.00000   0.00005   0.00000   0.61197
  30        2PZ        -0.00002   0.00010   0.00000   0.00016   0.82088
  31 7   H  1S          0.02762  -0.10186  -0.00706   0.13101  -0.00011
  32 8   H  1S         -0.01722   0.06690   0.04562  -0.07552  -0.00001
  33 9   H  1S         -0.00179   0.00638   0.00477   0.00003   0.00003
  34 10  H  1S         -0.01722   0.06693   0.04567   0.07555  -0.00012
  35 11  H  1S          0.02762  -0.10191  -0.00710  -0.13103   0.00012
  36 12  H  1S         -0.10811   0.28008  -0.56019   0.00007  -0.00008
                          31        32        33        34        35
  31 7   H  1S          0.62019
  32 8   H  1S         -0.07047   0.58605
  33 9   H  1S         -0.03866  -0.07043   0.56928
  34 10  H  1S          0.01597  -0.03775  -0.07031   0.58600
  35 11  H  1S         -0.04137   0.01599  -0.03866  -0.07049   0.62026
  36 12  H  1S         -0.07043  -0.04047   0.01600  -0.04047  -0.07041
                          36
  36 12  H  1S          0.63766
    Full Mulliken population analysis:
                           1         2         3         4         5
   1 1   C  1S          2.06988
   2        2S         -0.05225   0.79815
   3        2PX         0.00000   0.00000   0.61360
   4        2PY         0.00000   0.00000   0.00000   0.59968
   5        2PZ         0.00000   0.00000   0.00000   0.00000   0.80484
   6 2   C  1S          0.00000  -0.00241  -0.00692   0.00000   0.00000
   7        2S         -0.00238   0.03472   0.11100   0.00000   0.00000
   8        2PX        -0.00704   0.11628   0.15405   0.00000   0.00000
   9        2PY         0.00000   0.00000   0.00000   0.00052   0.00000
  10        2PZ         0.00000   0.00000   0.00000   0.00000   0.10868
  11 3   C  1S          0.00000   0.00003   0.00007   0.00002   0.00000
  12        2S          0.00003  -0.00230  -0.00548  -0.00189   0.00000
  13        2PX         0.00007  -0.00619  -0.00675  -0.00094   0.00000
  14        2PY         0.00003  -0.00193  -0.00345  -0.00036   0.00000
  15        2PZ         0.00000   0.00000   0.00000   0.00000  -0.00111
  16 4   C  1S          0.00000   0.00001   0.00000   0.00001   0.00000
  17        2S          0.00001  -0.00137  -0.00046  -0.00134   0.00000
  18        2PX         0.00000  -0.00045   0.00025  -0.00123   0.00000
  19        2PY         0.00001  -0.00139  -0.00124  -0.00064   0.00000
  20        2PZ         0.00000   0.00000   0.00000   0.00000  -0.00347
  21 5   C  1S          0.00000   0.00003   0.00000   0.00010   0.00000
  22        2S          0.00003  -0.00234   0.00000  -0.00758   0.00000
  23        2PX         0.00000   0.00000   0.00043   0.00000   0.00000
  24        2PY         0.00010  -0.00759   0.00000  -0.01120   0.00000
  25        2PZ         0.00000   0.00000   0.00000   0.00000  -0.00234
  26 6   C  1S          0.00000  -0.00241  -0.00176  -0.00526   0.00000
  27        2S         -0.00243   0.03561   0.02802   0.08731   0.00000
  28        2PX        -0.00173   0.02895  -0.00904   0.04580   0.00000
  29        2PY        -0.00523   0.08372   0.04997   0.06737   0.00000
  30        2PZ         0.00000   0.00000   0.00000   0.00000   0.10883
  31 7   H  1S         -0.00660   0.13813   0.06509   0.19368   0.00000
  32 8   H  1S          0.00014  -0.00967  -0.01240  -0.00306   0.00000
  33 9   H  1S          0.00000   0.00043   0.00088   0.00001   0.00000
  34 10  H  1S          0.00000   0.00001   0.00000   0.00001   0.00000
  35 11  H  1S          0.00000   0.00043   0.00007   0.00084   0.00000
  36 12  H  1S          0.00015  -0.00963  -0.01163  -0.00477   0.00000
                           6         7         8         9        10
   6 2   C  1S          2.07015
   7        2S         -0.05254   0.80281
   8        2PX         0.00000   0.00000   0.59997
   9        2PY         0.00000   0.00000   0.00000   0.62774
  10        2PZ         0.00000   0.00000   0.00000   0.00000   0.77321
  11 3   C  1S          0.00000  -0.00239  -0.00171  -0.00525   0.00000
  12        2S         -0.00237   0.03395   0.02640   0.08571   0.00000
  13        2PX        -0.00179   0.03042  -0.00927   0.04768   0.00000
  14        2PY        -0.00522   0.08434   0.04877   0.06779   0.00000
  15        2PZ         0.00000   0.00000   0.00000   0.00000   0.10886
  16 4   C  1S          0.00000   0.00003   0.00000   0.00010   0.00000
  17        2S          0.00003  -0.00229   0.00000  -0.00779   0.00000
  18        2PX         0.00000   0.00000   0.00036   0.00000   0.00000
  19        2PY         0.00010  -0.00779   0.00000  -0.01210   0.00000
  20        2PZ         0.00000   0.00000   0.00000   0.00000  -0.00071
  21 5   C  1S          0.00000   0.00001   0.00000   0.00001   0.00000
  22        2S          0.00001  -0.00137  -0.00045  -0.00138   0.00000
  23        2PX         0.00000  -0.00045   0.00025  -0.00124   0.00000
  24        2PY         0.00001  -0.00134  -0.00123  -0.00064   0.00000
  25        2PZ         0.00000   0.00000   0.00000   0.00000  -0.00347
  26 6   C  1S          0.00000   0.00003   0.00008   0.00002   0.00000
  27        2S          0.00003  -0.00232  -0.00592  -0.00209   0.00000
  28        2PX         0.00007  -0.00550  -0.00607  -0.00109   0.00000
  29        2PY         0.00003  -0.00177  -0.00343  -0.00042   0.00000
  30        2PZ         0.00000   0.00000   0.00000   0.00000  -0.00193
  31 7   H  1S          0.00014  -0.00948  -0.01229  -0.00351   0.00000
  32 8   H  1S         -0.00663   0.14211   0.06360   0.19268   0.00000
  33 9   H  1S          0.00014  -0.00950  -0.01053  -0.00435   0.00000
  34 10  H  1S          0.00000   0.00042   0.00007   0.00084   0.00000
  35 11  H  1S          0.00000   0.00001   0.00001   0.00001   0.00000
  36 12  H  1S          0.00000   0.00042   0.00092   0.00002   0.00000
                          11        12        13        14        15
  11 3   C  1S          2.07029
  12        2S         -0.05271   0.80556
  13        2PX         0.00000   0.00000   0.64009
  14        2PY         0.00000   0.00000   0.00000   0.59489
  15        2PZ         0.00000   0.00000   0.00000   0.00000   0.75732
  16 4   C  1S          0.00000  -0.00237  -0.00179  -0.00521   0.00000
  17        2S         -0.00238   0.03391   0.03038   0.08429   0.00000
  18        2PX        -0.00170   0.02637  -0.00925   0.04871   0.00000
  19        2PY        -0.00524   0.08569   0.04764   0.06788   0.00000
  20        2PZ         0.00000   0.00000   0.00000   0.00000   0.10849
  21 5   C  1S          0.00000   0.00003   0.00007   0.00003   0.00000
  22        2S          0.00003  -0.00230  -0.00618  -0.00194   0.00000
  23        2PX         0.00007  -0.00548  -0.00674  -0.00345   0.00000
  24        2PY         0.00002  -0.00189  -0.00093  -0.00036   0.00000
  25        2PZ         0.00000   0.00000   0.00000   0.00000  -0.00111
  26 6   C  1S          0.00000   0.00001   0.00001   0.00000   0.00000
  27        2S          0.00001  -0.00137  -0.00186   0.00000   0.00000
  28        2PX         0.00001  -0.00177  -0.00232   0.00000   0.00000
  29        2PY         0.00000   0.00000   0.00000  -0.00054   0.00000
  30        2PZ         0.00000   0.00000   0.00000   0.00000  -0.00348
  31 7   H  1S          0.00000   0.00042   0.00042   0.00052   0.00000
  32 8   H  1S          0.00014  -0.00942   0.00000  -0.01506   0.00000
  33 9   H  1S         -0.00664   0.14390   0.25489   0.00000   0.00000
  34 10  H  1S          0.00014  -0.00942   0.00000  -0.01506   0.00000
  35 11  H  1S          0.00000   0.00042   0.00042   0.00052   0.00000
  36 12  H  1S          0.00000   0.00001   0.00001   0.00000   0.00000
                          16        17        18        19        20
  16 4   C  1S          2.07015
  17        2S         -0.05255   0.80298
  18        2PX         0.00000   0.00000   0.59997
  19        2PY         0.00000   0.00000   0.00000   0.62772
  20        2PZ         0.00000   0.00000   0.00000   0.00000   0.77314
  21 5   C  1S          0.00000  -0.00239  -0.00705   0.00000   0.00000
  22        2S         -0.00241   0.03475   0.11631   0.00000   0.00000
  23        2PX        -0.00693   0.11104   0.15402   0.00000   0.00000
  24        2PY         0.00000   0.00000   0.00000   0.00054   0.00000
  25        2PZ         0.00000   0.00000   0.00000   0.00000   0.10899
  26 6   C  1S          0.00000   0.00003   0.00008   0.00002   0.00000
  27        2S          0.00003  -0.00232  -0.00591  -0.00209   0.00000
  28        2PX         0.00007  -0.00550  -0.00606  -0.00109   0.00000
  29        2PY         0.00003  -0.00177  -0.00343  -0.00042   0.00000
  30        2PZ         0.00000   0.00000   0.00000   0.00000  -0.00193
  31 7   H  1S          0.00000   0.00001   0.00001   0.00001   0.00000
  32 8   H  1S          0.00000   0.00042   0.00007   0.00084   0.00000
  33 9   H  1S          0.00014  -0.00950  -0.01052  -0.00435   0.00000
  34 10  H  1S         -0.00663   0.14212   0.06371   0.19255   0.00000
  35 11  H  1S          0.00014  -0.00947  -0.01229  -0.00351   0.00000
  36 12  H  1S          0.00000   0.00042   0.00092   0.00002   0.00000
                          21        22        23        24        25
  21 5   C  1S          2.06988
  22        2S         -0.05225   0.79815
  23        2PX         0.00000   0.00000   0.61354
  24        2PY         0.00000   0.00000   0.00000   0.59966
  25        2PZ         0.00000   0.00000   0.00000   0.00000   0.80492
  26 6   C  1S          0.00000  -0.00241  -0.00176  -0.00526   0.00000
  27        2S         -0.00242   0.03560   0.02801   0.08729   0.00000
  28        2PX        -0.00173   0.02896  -0.00903   0.04581   0.00000
  29        2PY        -0.00523   0.08370   0.04994   0.06738   0.00000
  30        2PZ         0.00000   0.00000   0.00000   0.00000   0.10854
  31 7   H  1S          0.00000   0.00043   0.00007   0.00084   0.00000
  32 8   H  1S          0.00000   0.00001   0.00000   0.00001   0.00000
  33 9   H  1S          0.00000   0.00043   0.00088   0.00001   0.00000
  34 10  H  1S          0.00014  -0.00966  -0.01239  -0.00306   0.00000
  35 11  H  1S         -0.00660   0.13810   0.06515   0.19362   0.00000
  36 12  H  1S          0.00015  -0.00963  -0.01163  -0.00477   0.00000
                          26        27        28        29        30
  26 6   C  1S          2.06976
  27        2S         -0.05211   0.79603
  28        2PX         0.00000   0.00000   0.59407
  29        2PY         0.00000   0.00000   0.00000   0.61197
  30        2PZ         0.00000   0.00000   0.00000   0.00000   0.82088
  31 7   H  1S          0.00015  -0.00974  -0.00006  -0.01616   0.00000
  32 8   H  1S          0.00000   0.00043   0.00038   0.00051   0.00000
  33 9   H  1S          0.00000   0.00001   0.00002   0.00000   0.00000
  34 10  H  1S          0.00000   0.00043   0.00038   0.00051   0.00000
  35 11  H  1S          0.00015  -0.00974  -0.00006  -0.01616   0.00000
  36 12  H  1S         -0.00658   0.13590   0.25990   0.00000   0.00000
                          31        32        33        34        35
  31 7   H  1S          0.62019
  32 8   H  1S         -0.00353   0.58605
  33 9   H  1S         -0.00003  -0.00352   0.56928
  34 10  H  1S          0.00000  -0.00003  -0.00352   0.58600
  35 11  H  1S         -0.00003   0.00000  -0.00003  -0.00352   0.62026
  36 12  H  1S         -0.00352  -0.00003   0.00000  -0.00003  -0.00352
                          36
  36 12  H  1S          0.63766
     Gross orbital populations:
                           1
   1 1   C  1S          1.99277
   2        2S          1.13658
   3        2PX         0.96432
   4        2PY         0.95708
   5        2PZ         1.01544
   6 2   C  1S          1.99280
   7        2S          1.14113
   8        2PX         0.95281
   9        2PY         0.98327
  10        2PZ         0.98465
  11 3   C  1S          1.99282
  12        2S          1.14363
  13        2PX         0.99812
  14        2PY         0.94520
  15        2PZ         0.96896
  16 4   C  1S          1.99280
  17        2S          1.14126
  18        2PX         0.95286
  19        2PY         0.98316
  20        2PZ         0.98451
  21 5   C  1S          1.99277
  22        2S          1.13658
  23        2PX         0.96431
  24        2PY         0.95701
  25        2PZ         1.01554
  26 6   C  1S          1.99275
  27        2S          1.13437
  28        2PX         0.95337
  29        2PY         0.96055
  30        2PZ         1.03091
  31 7   H  1S          0.95515
  32 8   H  1S          0.92406
  33 9   H  1S          0.90853
  34 10  H  1S          0.92404
  35 11  H  1S          0.95519
  36 12  H  1S          0.97075
          Condensed to atoms (all electrons):
               1          2          3          4          5          6
     1  C    4.781655   0.506501  -0.030141  -0.011291  -0.030375   0.507712
     2  C    0.506501   4.768796   0.505929  -0.030078  -0.011289  -0.030293
     3  C   -0.030141   0.505929   4.762720   0.505429  -0.030133  -0.011300
     4  C   -0.011291  -0.030078   0.505429   4.768843   0.506871  -0.030288
     5  C   -0.030375  -0.011289  -0.030133   0.506871   4.781654   0.507368
     6  C    0.507712  -0.030293  -0.011300  -0.030288   0.507368   4.788477
     7  H    0.390302  -0.025141   0.001353   0.000028   0.001336  -0.025809
     8  H   -0.024984   0.391762  -0.024336   0.001335   0.000028   0.001318
     9  H    0.001318  -0.024241   0.392154  -0.024230   0.001316   0.000028
    10  H    0.000028   0.001334  -0.024334   0.391750  -0.024961   0.001318
    11  H    0.001336   0.000028   0.001353  -0.025138   0.390265  -0.025809
    12  H   -0.025881   0.001354   0.000028   0.001353  -0.025883   0.389225
               7          8          9         10         11         12
     1  C    0.390302  -0.024984   0.001318   0.000028   0.001336  -0.025881
     2  C   -0.025141   0.391762  -0.024241   0.001334   0.000028   0.001354
     3  C    0.001353  -0.024336   0.392154  -0.024334   0.001353   0.000028
     4  C    0.000028   0.001335  -0.024230   0.391750  -0.025138   0.001353
     5  C    0.001336   0.000028   0.001316  -0.024961   0.390265  -0.025883
     6  C   -0.025809   0.001318   0.000028   0.001318  -0.025809   0.389225
     7  H    0.620187  -0.003526  -0.000029   0.000002  -0.000031  -0.003523
     8  H   -0.003526   0.586047  -0.003522  -0.000029   0.000002  -0.000031
     9  H   -0.000029  -0.003522   0.569279  -0.003517  -0.000029   0.000002
    10  H    0.000002  -0.000029  -0.003517   0.585999  -0.003523  -0.000031
    11  H   -0.000031   0.000002  -0.000029  -0.003523   0.620257  -0.003523
    12  H   -0.003523  -0.000031   0.000002  -0.000031  -0.003523   0.637656
 Mulliken charges:
               1
     1  C   -0.066179
     2  C   -0.054661
     3  C   -0.048721
     4  C   -0.054585
     5  C   -0.066197
     6  C   -0.071948
     7  H    0.044852
     8  H    0.075936
     9  H    0.091472
    10  H    0.075963
    11  H    0.044814
    12  H    0.029254
 Sum of Mulliken charges =   0.00000
 Mulliken charges with hydrogens summed into heavy atoms:
               1
     1  C   -0.021327
     2  C    0.021274
     3  C    0.042751
     4  C    0.021378
     5  C   -0.021383
     6  C   -0.042694
 Electronic spatial extent (au):  <R**2>=            771.3080
 Charge=              0.0000 electrons
 Dipole moment (field-independent basis, Debye):
    X=              1.1835    Y=              0.0001    Z=              0.0007  Tot=              1.1835
 Quadrupole moment (field-independent basis, Debye-Ang):
   XX=            -31.0451   YY=            -31.1606   ZZ=            -35.1297
   XY=              1.7165   XZ=              0.0011   YZ=             -0.0018
 Traceless Quadrupole moment (field-independent basis, Debye-Ang):
   XX=              1.4000   YY=              1.2846   ZZ=             -2.6846
   XY=              1.7165   XZ=              0.0011   YZ=             -0.0018
 Octapole moment (field-independent basis, Debye-Ang**2):
  XXX=              0.9181  YYY=           -135.4900  ZZZ=              0.1073  XYY=              2.7917
  XXY=            -44.9906  XXZ=              0.0353  XZZ=             -1.3653  YZZ=            -50.9148
  YYZ=              0.0272  XYZ=              0.0006
 Hexadecapole moment (field-independent basis, Debye-Ang**3):
 XXXX=           -259.9929 YYYY=           -653.3361 ZZZZ=            -28.5475 XXXY=              1.3356
 XXXZ=             -0.0212 YYYX=              4.9321 YYYZ=              0.1901 ZZZX=             -0.0307
 ZZZY=              0.2376 XXYY=           -151.9541 XXZZ=            -54.0415 YYZZ=           -127.7848
 XXYZ=              0.0705 YYXZ=             -0.0051 ZZXY=             -1.9775
 N-N= 2.029918701540D+02 E-N=-9.368585327979D+02  KE= 2.259089728601D+02
 Orbital energies and kinetic energies (alpha):
                                 1                 2
   1         O               -11.034333         15.640770
   2         O               -11.031281         15.638700
   3         O               -11.031206         15.637597
   4         O               -11.025088         15.638225
   5         O               -11.025039         15.641380
   6         O               -11.021977         15.637073
   7         O                -1.088633          1.375645
   8         O                -0.951951          1.508525
   9         O                -0.951736          1.507447
  10         O                -0.762686          1.344108
  11         O                -0.762312          1.345837
  12         O                -0.657116          0.854131
  13         O                -0.587085          1.239349
  14         O                -0.551458          1.307929
  15         O                -0.529858          1.135278
  16         O                -0.529003          1.133208
  17         O                -0.455451          1.084795
  18         O                -0.428397          1.319573
  19         O                -0.427655          1.319333
  20         O                -0.278660          1.323246
  21         O                -0.277903          1.322338
  22         V                 0.269852          1.823839
  23         V                 0.270418          1.823207
  24         V                 0.505617          2.164541
  25         V                 0.562596          1.988592
  26         V                 0.636930          2.110149
  27         V                 0.640080          2.104236
  28         V                 0.701863          3.065580
  29         V                 0.727062          3.166969
  30         V                 0.732578          3.164010
  31         V                 0.875999          2.781508
  32         V                 0.876275          2.779464
  33         V                 0.895088          3.164611
  34         V                 0.895509          3.164625
  35         V                 1.088963          3.362312
  36         V                 1.145427          3.594308
 Total kinetic energy from orbitals= 2.259089728601D+02
 Unable to Open any file for archive entry.
 1\1\GINC-MEDUSA\SP\RHF\STO-3G\C6H6\DBWY\29-Sep-2015\0\\# hf/sto-3G gfi
 nput pop=full nosymm Field=X-100\\Benzene STO-3G\\0,1\C,0,-0.64863549,
 0.24130784,-0.00045\C,0,0.74652451,0.24130784,-0.00045\C,0,1.44406251,
 1.44905884,-0.00045\C,0,0.74640851,2.65756784,-0.001649\C,0,-0.6484164
 9,2.65748984,-0.002128\C,0,-1.34601749,1.44928384,-0.001132\H,0,-1.198
 39449,-0.71100916,0.\H,0,1.29603251,-0.71120516,0.000865\H,0,2.5437425
 1,1.44913884,0.000184\H,0,1.29660851,3.60971084,-0.001708\H,0,-1.19853
 849,3.60977084,-0.003081\H,0,-2.44562149,1.44946684,-0.001312\\Version
 =ES64L-GDVRevI.01+\HF=-227.8917381\RMSD=2.668e-09\Dipole=0.4656257,0.0
 000549,0.0002608\Quadrupole=1.0408992,0.9550366,-1.9959359,1.276186,0.
 0007865,-0.0013494\PG=C01 [X(C6H6)]\\@
 The archive entry for this job was punched.


 MODELS ARE TO BE USED, NOT BELIEVED.

    -- PARAPHRASED BY H. THIEL IN "PRINCIPLES OF ECONOMETRICS"
 Job cpu time:       0 days  0 hours  0 minutes  0.9 seconds.
 Elapsed time:       0 days  0 hours  0 minutes  0.7 seconds.
 File lengths (MBytes):  RWF=      5 Int=      0 D2E=      0 Chk=      1 Scr=      1
 Normal termination of Gaussian DV at Tue Sep 29 11:37:04 2015.
