 Entering Gaussian System, Link 0=gdv
 Input=benzene_cc-pVDZ.com
 Output=benzene_cc-pVDZ.log
 Initial command:
 /home/gauss/gdvi03p/gdv/l1.exe "/home/GauScr/Gau-10802.inp" -scrdir="/home/GauScr/"
 Entering Link 1 = /home/gauss/gdvi03p/gdv/l1.exe PID=     10803.
  
 Copyright (c) 1988,1990,1992,1993,1995,1998,2003,2009,2015,
            Gaussian, Inc.  All Rights Reserved.
  
 This is the private, development version of
 the Gaussian(R) DV system of programs. It is based on
 the Gaussian(R) 09 system (copyright 2009, Gaussian, Inc.),
 the Gaussian(R) 03 system (copyright 2003, Gaussian, Inc.),
 the Gaussian(R) 98 system (copyright 1998, Gaussian, Inc.),
 the Gaussian(R) 94 system (copyright 1995, Gaussian, Inc.),
 the Gaussian 92(TM) system (copyright 1992, Gaussian, Inc.),
 the Gaussian 90(TM) system (copyright 1990, Gaussian, Inc.),
 the Gaussian 88(TM) system (copyright 1988, Gaussian, Inc.),
 the Gaussian 86(TM) system (copyright 1986, Carnegie Mellon
 University), and the Gaussian 82(TM) system (copyright 1983,
 Carnegie Mellon University). Gaussian is a federally registered
 trademark of Gaussian, Inc.
  
 This software contains proprietary and confidential information,
 including trade secrets, belonging to Gaussian, Inc.
  
 This software is provided under written license and may be
 used, copied, transmitted, or stored only in accord with that
 written license.
  
 The following legend is applicable only to US Government
 contracts under FAR:
  
                    RESTRICTED RIGHTS LEGEND
  
 Use, reproduction and disclosure by the US Government is
 subject to restrictions as set forth in subparagraphs (a)
 and (c) of the Commercial Computer Software - Restricted
 Rights clause in FAR 52.227-19.
  
 Gaussian, Inc.
 340 Quinnipiac St., Bldg. 40, Wallingford CT 06492
  
  
 ---------------------------------------------------------------
 Warning -- This program may not be used in any manner that
 competes with the business of Gaussian, Inc. or will provide
 assistance to any competitor of Gaussian, Inc.  The licensee
 of this program is prohibited from giving any competitor of
 Gaussian, Inc. access to this program.  By using this program,
 the user acknowledges that Gaussian, Inc. is engaged in the
 business of creating and licensing software in the field of
 computational chemistry and represents and warrants to the
 licensee that it is not a competitor of Gaussian, Inc. and that
 it will not use this program in any manner prohibited above.
 ---------------------------------------------------------------
  

 Cite this work as:
 Gaussian Development Version, Revision I.03+,
 M. J. Frisch, G. W. Trucks, H. B. Schlegel, G. E. Scuseria, 
 M. A. Robb, J. R. Cheeseman, G. Scalmani, V. Barone, B. Mennucci, 
 G. A. Petersson, H. Nakatsuji, M. Caricato, X. Li, H. P. Hratchian, 
 J. Bloino, B. G. Janesko, A. F. Izmaylov, A. Marenich, F. Lipparini, 
 G. Zheng, J. L. Sonnenberg, W. Liang, M. Hada, M. Ehara, K. Toyota, 
 R. Fukuda, J. Hasegawa, M. Ishida, T. Nakajima, Y. Honda, O. Kitao, 
 H. Nakai, T. Vreven, K. Throssell, J. A. Montgomery, Jr., 
 J. E. Peralta, F. Ogliaro, M. Bearpark, J. J. Heyd, E. Brothers, 
 K. N. Kudin, V. N. Staroverov, T. Keith, R. Kobayashi, J. Normand, 
 K. Raghavachari, A. Rendell, J. C. Burant, S. S. Iyengar, J. Tomasi, 
 M. Cossi, N. Rega, J. M. Millam, M. Klene, J. E. Knox, J. B. Cross, 
 V. Bakken, C. Adamo, J. Jaramillo, R. Gomperts, R. E. Stratmann, 
 O. Yazyev, A. J. Austin, R. Cammi, C. Pomelli, J. W. Ochterski, 
 R. L. Martin, K. Morokuma, V. G. Zakrzewski, G. A. Voth, 
 P. Salvador, J. J. Dannenberg, S. Dapprich, P. V. Parandekar, 
 N. J. Mayhall, A. D. Daniels, O. Farkas, J. B. Foresman, 
 J. V. Ortiz, J. Cioslowski, and D. J. Fox, 
 Gaussian, Inc., Wallingford CT, 2014.
 
 *******************************************
 Gaussian DV:  ES64L-GDVRevI.03+  2-May-2015
                 26-Oct-2015 
 *******************************************
 ---------------------------------------
 # hf/cc-pVDZ gfinput pop=full nosymm 6D
 ---------------------------------------
 1/38=1,172=1/1;
 2/12=2,15=1,17=6,18=5,40=1/2;
 3/5=16,8=2,11=9,24=10,25=1,30=1/1,2,3;
 4//1;
 5/5=2,38=5/2;
 6/7=3,28=1/1;
 99/5=1,9=1/99;
 ---------------
 Benzene cc-pVDZ
 ---------------
 Symbolic Z-matrix:
 Charge =  0 Multiplicity = 1
 C                    -0.20699  -0.18218   0.00007 
 C                     1.19167  -0.18235   0.0005 
 C                     1.89106   1.02887  -0.00007 
 C                     1.19173   2.24013  -0.00106 
 C                    -0.20692   2.24031  -0.00148 
 C                    -0.90631   1.02909  -0.00092 
 H                    -0.75075  -1.1239    0.00051 
 H                     1.73529  -1.12415   0.00127 
 H                     2.97848   1.02893   0.00027 
 H                     1.7355    3.18185  -0.0015 
 H                    -0.75054   3.1821   -0.00226 
 H                    -1.99373   1.02902  -0.00125 
 
                          Input orientation:                          
 ---------------------------------------------------------------------
 Center     Atomic      Atomic             Coordinates (Angstroms)
 Number     Number       Type             X           Y           Z
 ---------------------------------------------------------------------
      1          6           0       -0.206985   -0.182180    0.000071
      2          6           0        1.191674   -0.182353    0.000499
      3          6           0        1.891055    1.028868   -0.000066
      4          6           0        1.191735    2.240134   -0.001056
      5          6           0       -0.206924    2.240307   -0.001484
      6          6           0       -0.906306    1.029086   -0.000919
      7          1           0       -0.750746   -1.123896    0.000510
      8          1           0        1.735285   -1.124149    0.001271
      9          1           0        2.978478    1.028934    0.000267
     10          1           0        1.735496    3.181849   -0.001495
     11          1           0       -0.750536    3.182103   -0.002255
     12          1           0       -1.993729    1.029020   -0.001252
 ---------------------------------------------------------------------
                    Distance matrix (angstroms):
                    1          2          3          4          5
     1  C    0.000000
     2  C    1.398659   0.000000
     3  C    2.422480   1.398639   0.000000
     4  C    2.797145   2.422487   1.398648   0.000000
     5  C    2.422487   2.797385   2.422623   1.398659   0.000000
     6  C    1.398648   2.422623   2.797361   2.422480   1.398639
     7  H    1.087430   2.158587   3.407859   3.884576   3.407874
     8  H    2.158639   1.087425   2.158645   3.407910   3.884810
     9  H    3.407928   2.158677   1.087423   2.158578   3.407964
    10  H    3.884576   3.407874   2.158595   1.087430   2.158587
    11  H    3.407910   3.884810   3.407995   2.158639   1.087425
    12  H    2.158578   3.407964   3.884784   3.407928   2.158677
                    6          7          8          9         10
     6  C    0.000000
     7  H    2.158595   0.000000
     8  H    3.407995   2.486032   0.000000
     9  H    3.884784   4.306018   2.486221   0.000000
    10  H    3.407859   4.972006   4.306000   2.485971   0.000000
    11  H    2.158645   4.306000   4.972236   4.306006   2.486032
    12  H    1.087423   2.485971   4.306006   4.972207   4.306018
                   11         12
    11  H    0.000000
    12  H    2.486221   0.000000
 Symmetry turned off by external request.
 Stoichiometry    C6H6
 Framework group  CI[X(C6H6)]
 Deg. of freedom    15
 Full point group                 CI      NOp   2
 Rotational constants (GHZ):      5.6717105      5.6710222      2.8356832
 Standard basis: CC-pVDZ (6D, 7F)
 AO basis set in the form of general basis input (Overlap normalization):
      1 0
 S   7 1.00       0.000000000000
      0.6665000000D+04  0.6935163173D-03
      0.1000000000D+04  0.5341502433D-02
      0.2280000000D+03  0.2713667141D-01
      0.6471000000D+02  0.1019923853D+00
      0.2106000000D+02  0.2755086365D+00
      0.7495000000D+01  0.4510864331D+00
      0.2797000000D+01  0.2875657448D+00
 S   7 1.00       0.000000000000
      0.6665000000D+04  0.7733547404D-05
      0.2280000000D+03  0.2780721367D-03
      0.6471000000D+02 -0.2578756542D-02
      0.2106000000D+02 -0.8950876838D-02
      0.7495000000D+01 -0.1060588547D+00
      0.2797000000D+01 -0.1315176856D+00
      0.5215000000D+00  0.1099486598D+01
 S   1 1.00       0.000000000000
      0.1596000000D+00  0.1000000000D+01
 P   3 1.00       0.000000000000
      0.9439000000D+01  0.5697925159D-01
      0.2002000000D+01  0.3132072115D+00
      0.5456000000D+00  0.7603767417D+00
 P   1 1.00       0.000000000000
      0.1517000000D+00  0.1000000000D+01
 D   1 1.00       0.000000000000
      0.5500000000D+00  0.1000000000D+01
 ****
      2 0
 S   7 1.00       0.000000000000
      0.6665000000D+04  0.6935163173D-03
      0.1000000000D+04  0.5341502433D-02
      0.2280000000D+03  0.2713667141D-01
      0.6471000000D+02  0.1019923853D+00
      0.2106000000D+02  0.2755086365D+00
      0.7495000000D+01  0.4510864331D+00
      0.2797000000D+01  0.2875657448D+00
 S   7 1.00       0.000000000000
      0.6665000000D+04  0.7733547404D-05
      0.2280000000D+03  0.2780721367D-03
      0.6471000000D+02 -0.2578756542D-02
      0.2106000000D+02 -0.8950876838D-02
      0.7495000000D+01 -0.1060588547D+00
      0.2797000000D+01 -0.1315176856D+00
      0.5215000000D+00  0.1099486598D+01
 S   1 1.00       0.000000000000
      0.1596000000D+00  0.1000000000D+01
 P   3 1.00       0.000000000000
      0.9439000000D+01  0.5697925159D-01
      0.2002000000D+01  0.3132072115D+00
      0.5456000000D+00  0.7603767417D+00
 P   1 1.00       0.000000000000
      0.1517000000D+00  0.1000000000D+01
 D   1 1.00       0.000000000000
      0.5500000000D+00  0.1000000000D+01
 ****
      3 0
 S   7 1.00       0.000000000000
      0.6665000000D+04  0.6935163173D-03
      0.1000000000D+04  0.5341502433D-02
      0.2280000000D+03  0.2713667141D-01
      0.6471000000D+02  0.1019923853D+00
      0.2106000000D+02  0.2755086365D+00
      0.7495000000D+01  0.4510864331D+00
      0.2797000000D+01  0.2875657448D+00
 S   7 1.00       0.000000000000
      0.6665000000D+04  0.7733547404D-05
      0.2280000000D+03  0.2780721367D-03
      0.6471000000D+02 -0.2578756542D-02
      0.2106000000D+02 -0.8950876838D-02
      0.7495000000D+01 -0.1060588547D+00
      0.2797000000D+01 -0.1315176856D+00
      0.5215000000D+00  0.1099486598D+01
 S   1 1.00       0.000000000000
      0.1596000000D+00  0.1000000000D+01
 P   3 1.00       0.000000000000
      0.9439000000D+01  0.5697925159D-01
      0.2002000000D+01  0.3132072115D+00
      0.5456000000D+00  0.7603767417D+00
 P   1 1.00       0.000000000000
      0.1517000000D+00  0.1000000000D+01
 D   1 1.00       0.000000000000
      0.5500000000D+00  0.1000000000D+01
 ****
      4 0
 S   7 1.00       0.000000000000
      0.6665000000D+04  0.6935163173D-03
      0.1000000000D+04  0.5341502433D-02
      0.2280000000D+03  0.2713667141D-01
      0.6471000000D+02  0.1019923853D+00
      0.2106000000D+02  0.2755086365D+00
      0.7495000000D+01  0.4510864331D+00
      0.2797000000D+01  0.2875657448D+00
 S   7 1.00       0.000000000000
      0.6665000000D+04  0.7733547404D-05
      0.2280000000D+03  0.2780721367D-03
      0.6471000000D+02 -0.2578756542D-02
      0.2106000000D+02 -0.8950876838D-02
      0.7495000000D+01 -0.1060588547D+00
      0.2797000000D+01 -0.1315176856D+00
      0.5215000000D+00  0.1099486598D+01
 S   1 1.00       0.000000000000
      0.1596000000D+00  0.1000000000D+01
 P   3 1.00       0.000000000000
      0.9439000000D+01  0.5697925159D-01
      0.2002000000D+01  0.3132072115D+00
      0.5456000000D+00  0.7603767417D+00
 P   1 1.00       0.000000000000
      0.1517000000D+00  0.1000000000D+01
 D   1 1.00       0.000000000000
      0.5500000000D+00  0.1000000000D+01
 ****
      5 0
 S   7 1.00       0.000000000000
      0.6665000000D+04  0.6935163173D-03
      0.1000000000D+04  0.5341502433D-02
      0.2280000000D+03  0.2713667141D-01
      0.6471000000D+02  0.1019923853D+00
      0.2106000000D+02  0.2755086365D+00
      0.7495000000D+01  0.4510864331D+00
      0.2797000000D+01  0.2875657448D+00
 S   7 1.00       0.000000000000
      0.6665000000D+04  0.7733547404D-05
      0.2280000000D+03  0.2780721367D-03
      0.6471000000D+02 -0.2578756542D-02
      0.2106000000D+02 -0.8950876838D-02
      0.7495000000D+01 -0.1060588547D+00
      0.2797000000D+01 -0.1315176856D+00
      0.5215000000D+00  0.1099486598D+01
 S   1 1.00       0.000000000000
      0.1596000000D+00  0.1000000000D+01
 P   3 1.00       0.000000000000
      0.9439000000D+01  0.5697925159D-01
      0.2002000000D+01  0.3132072115D+00
      0.5456000000D+00  0.7603767417D+00
 P   1 1.00       0.000000000000
      0.1517000000D+00  0.1000000000D+01
 D   1 1.00       0.000000000000
      0.5500000000D+00  0.1000000000D+01
 ****
      6 0
 S   7 1.00       0.000000000000
      0.6665000000D+04  0.6935163173D-03
      0.1000000000D+04  0.5341502433D-02
      0.2280000000D+03  0.2713667141D-01
      0.6471000000D+02  0.1019923853D+00
      0.2106000000D+02  0.2755086365D+00
      0.7495000000D+01  0.4510864331D+00
      0.2797000000D+01  0.2875657448D+00
 S   7 1.00       0.000000000000
      0.6665000000D+04  0.7733547404D-05
      0.2280000000D+03  0.2780721367D-03
      0.6471000000D+02 -0.2578756542D-02
      0.2106000000D+02 -0.8950876838D-02
      0.7495000000D+01 -0.1060588547D+00
      0.2797000000D+01 -0.1315176856D+00
      0.5215000000D+00  0.1099486598D+01
 S   1 1.00       0.000000000000
      0.1596000000D+00  0.1000000000D+01
 P   3 1.00       0.000000000000
      0.9439000000D+01  0.5697925159D-01
      0.2002000000D+01  0.3132072115D+00
      0.5456000000D+00  0.7603767417D+00
 P   1 1.00       0.000000000000
      0.1517000000D+00  0.1000000000D+01
 D   1 1.00       0.000000000000
      0.5500000000D+00  0.1000000000D+01
 ****
      7 0
 S   3 1.00       0.000000000000
      0.1301000000D+02  0.3349872639D-01
      0.1962000000D+01  0.2348008012D+00
      0.4446000000D+00  0.8136829579D+00
 S   1 1.00       0.000000000000
      0.1220000000D+00  0.1000000000D+01
 P   1 1.00       0.000000000000
      0.7270000000D+00  0.1000000000D+01
 ****
      8 0
 S   3 1.00       0.000000000000
      0.1301000000D+02  0.3349872639D-01
      0.1962000000D+01  0.2348008012D+00
      0.4446000000D+00  0.8136829579D+00
 S   1 1.00       0.000000000000
      0.1220000000D+00  0.1000000000D+01
 P   1 1.00       0.000000000000
      0.7270000000D+00  0.1000000000D+01
 ****
      9 0
 S   3 1.00       0.000000000000
      0.1301000000D+02  0.3349872639D-01
      0.1962000000D+01  0.2348008012D+00
      0.4446000000D+00  0.8136829579D+00
 S   1 1.00       0.000000000000
      0.1220000000D+00  0.1000000000D+01
 P   1 1.00       0.000000000000
      0.7270000000D+00  0.1000000000D+01
 ****
     10 0
 S   3 1.00       0.000000000000
      0.1301000000D+02  0.3349872639D-01
      0.1962000000D+01  0.2348008012D+00
      0.4446000000D+00  0.8136829579D+00
 S   1 1.00       0.000000000000
      0.1220000000D+00  0.1000000000D+01
 P   1 1.00       0.000000000000
      0.7270000000D+00  0.1000000000D+01
 ****
     11 0
 S   3 1.00       0.000000000000
      0.1301000000D+02  0.3349872639D-01
      0.1962000000D+01  0.2348008012D+00
      0.4446000000D+00  0.8136829579D+00
 S   1 1.00       0.000000000000
      0.1220000000D+00  0.1000000000D+01
 P   1 1.00       0.000000000000
      0.7270000000D+00  0.1000000000D+01
 ****
     12 0
 S   3 1.00       0.000000000000
      0.1301000000D+02  0.3349872639D-01
      0.1962000000D+01  0.2348008012D+00
      0.4446000000D+00  0.8136829579D+00
 S   1 1.00       0.000000000000
      0.1220000000D+00  0.1000000000D+01
 P   1 1.00       0.000000000000
      0.7270000000D+00  0.1000000000D+01
 ****

   120 basis functions,   240 primitive gaussians,   120 cartesian basis functions
    21 alpha electrons       21 beta electrons
       nuclear repulsion energy       202.9242874433 Hartrees.
 NAtoms=   12 NActive=   12 NUniq=   12 SFac= 1.00D+00 NAtFMM=   60 NAOKFM=F Big=F
 Integral buffers will be    131072 words long.
 Raffenetti 1 integral format.
 Two-electron integral symmetry is turned off.
 One-electron integrals computed using PRISM.
 NBasis=   120 RedAO= T EigKep=  3.42D-04  NBF=   120
 NBsUse=   120 1.00D-06 EigRej= -1.00D+00 NBFU=   120
 ExpMin= 1.22D-01 ExpMax= 6.67D+03 ExpMxC= 2.28D+02 IAcc=1 IRadAn=         1 AccDes= 0.00D+00
 Harris functional with IExCor=  205 and IRadAn=       1 diagonalized for initial guess.
 HarFok:  IExCor=  205 AccDes= 0.00D+00 IRadAn=         1 IDoV= 1 UseB2=F ITyADJ=14
 ICtDFT=  3500011 ScaDFX=  1.000000  1.000000  1.000000  1.000000
 FoFCou: FMM=F IPFlag=           0 FMFlag=      100000 FMFlg1=           0
         NFxFlg=           0 DoJE=T BraDBF=F KetDBF=T FulRan=T
         wScrn=  0.000000 ICntrl=       500 IOpCl=  0 I1Cent=   200000004 NGrid=           0
         NMat0=    1 NMatS0=      1 NMatT0=    0 NMatD0=    1 NMtDS0=    0 NMtDT0=    0
 Symmetry not used in FoFCou.
 Keep R1 ints in memory in canonical form, NReq=27311712.
 Requested convergence on RMS density matrix=1.00D-08 within 128 cycles.
 Requested convergence on MAX density matrix=1.00D-06.
 Requested convergence on             energy=1.00D-06.
 No special actions if energy rises.
 SCF Done:  E(RHF) =  -230.722342149     A.U. after    9 cycles
            NFock=  9  Conv=0.46D-08     -V/T= 2.0026

 **********************************************************************

            Population analysis using the SCF density.

 **********************************************************************

 Alpha  occ. eigenvalues --  -11.24251 -11.24195 -11.24195 -11.24076 -11.24075
 Alpha  occ. eigenvalues --  -11.24017  -1.14565  -1.01118  -1.01117  -0.82018
 Alpha  occ. eigenvalues --   -0.82017  -0.70331  -0.64065  -0.61361  -0.58326
 Alpha  occ. eigenvalues --   -0.58322  -0.49727  -0.49033  -0.49031  -0.33284
 Alpha  occ. eigenvalues --   -0.33283
 Alpha virt. eigenvalues --    0.13631   0.13631   0.18153   0.21959   0.21959
 Alpha virt. eigenvalues --    0.25507   0.25508   0.27124   0.34880   0.43575
 Alpha virt. eigenvalues --    0.43577   0.46721   0.46722   0.58335   0.58583
 Alpha virt. eigenvalues --    0.66151   0.66862   0.68100   0.71310   0.71311
 Alpha virt. eigenvalues --    0.73257   0.73257   0.73362   0.73363   0.74059
 Alpha virt. eigenvalues --    0.82268   0.82269   0.84356   0.84357   0.88334
 Alpha virt. eigenvalues --    0.88335   0.90907   0.97576   0.98204   1.04968
 Alpha virt. eigenvalues --    1.08000   1.08001   1.12172   1.15057   1.18494
 Alpha virt. eigenvalues --    1.18494   1.24056   1.24056   1.24340   1.24344
 Alpha virt. eigenvalues --    1.28942   1.31697   1.31699   1.46809   1.51258
 Alpha virt. eigenvalues --    1.51262   1.71817   1.74051   1.74053   1.76448
 Alpha virt. eigenvalues --    1.78728   1.85616   1.85620   1.88283   1.88290
 Alpha virt. eigenvalues --    1.89815   1.93023   1.95070   1.95072   1.95378
 Alpha virt. eigenvalues --    1.95386   2.08631   2.08636   2.11761   2.14327
 Alpha virt. eigenvalues --    2.14332   2.15100   2.15102   2.16598   2.26204
 Alpha virt. eigenvalues --    2.26206   2.27374   2.27375   2.32259   2.49379
 Alpha virt. eigenvalues --    2.55552   2.64999   2.72936   2.72937   2.75774
 Alpha virt. eigenvalues --    2.75774   2.81846   2.81853   2.86997   2.99799
 Alpha virt. eigenvalues --    3.10479   3.10482   3.12442   3.16943   3.16947
 Alpha virt. eigenvalues --    3.62821   3.62823   3.82576   4.49744
     Molecular Orbital Coefficients:
                           1         2         3         4         5
                           O         O         O         O         O
     Eigenvalues --   -11.24251 -11.24195 -11.24195 -11.24076 -11.24075
   1 1   C  1S          0.40604   0.12249   0.56159  -0.13276   0.56043
   2        2S          0.00752   0.00222   0.01020  -0.00238   0.01005
   3        3S         -0.00017  -0.00012  -0.00058   0.00031  -0.00132
   4        4PX         0.00009   0.00028  -0.00001   0.00021   0.00001
   5        4PY         0.00015  -0.00014   0.00011  -0.00010  -0.00010
   6        4PZ         0.00000   0.00000   0.00000   0.00000   0.00000
   7        5PX         0.00006   0.00037   0.00002   0.00024  -0.00005
   8        5PY         0.00011  -0.00017   0.00021  -0.00008  -0.00021
   9        5PZ         0.00000   0.00000   0.00000   0.00000   0.00000
  10        6XX        -0.00090  -0.00008  -0.00130   0.00035  -0.00112
  11        6YY        -0.00098  -0.00049  -0.00133   0.00019  -0.00118
  12        6ZZ        -0.00108  -0.00033  -0.00150   0.00035  -0.00147
  13        6XY        -0.00008   0.00010  -0.00014   0.00006  -0.00001
  14        6XZ         0.00000   0.00000   0.00000   0.00000   0.00000
  15        6YZ         0.00000   0.00000   0.00000   0.00000   0.00000
  16 2   C  1S          0.40730   0.54840   0.17504   0.55090  -0.16491
  17        2S          0.00754   0.00996   0.00318   0.00988  -0.00296
  18        3S         -0.00018  -0.00057  -0.00018  -0.00130   0.00039
  19        4PX        -0.00009   0.00004  -0.00027  -0.00002  -0.00021
  20        4PY         0.00015   0.00013  -0.00013  -0.00011  -0.00009
  21        4PZ         0.00000   0.00000   0.00000   0.00000   0.00000
  22        5PX        -0.00006   0.00002  -0.00037   0.00004  -0.00024
  23        5PY         0.00011   0.00022  -0.00015  -0.00022  -0.00007
  24        5PZ         0.00000   0.00000   0.00000   0.00000   0.00000
  25        6XX        -0.00090  -0.00129  -0.00020  -0.00109   0.00041
  26        6YY        -0.00099  -0.00127  -0.00061  -0.00116   0.00026
  27        6ZZ        -0.00108  -0.00147  -0.00047  -0.00144   0.00043
  28        6XY         0.00008   0.00015  -0.00009   0.00001  -0.00006
  29        6XZ         0.00000   0.00000   0.00000   0.00000   0.00000
  30        6YZ         0.00000   0.00000   0.00000   0.00000   0.00000
  31 3   C  1S          0.40676   0.42498  -0.38773  -0.41910  -0.39431
  32        2S          0.00753   0.00772  -0.00704  -0.00752  -0.00707
  33        3S         -0.00018  -0.00044   0.00040   0.00099   0.00093
  34        4PX        -0.00017  -0.00007   0.00006  -0.00006  -0.00006
  35        4PY         0.00000  -0.00021  -0.00023  -0.00017   0.00018
  36        4PZ         0.00000   0.00000   0.00000   0.00000   0.00000
  37        5PX        -0.00013  -0.00014   0.00013  -0.00016  -0.00015
  38        5PY         0.00000  -0.00028  -0.00031  -0.00018   0.00019
  39        5PZ         0.00000   0.00000   0.00000   0.00000   0.00000
  40        6XX        -0.00103  -0.00108   0.00098   0.00088   0.00082
  41        6YY        -0.00086  -0.00091   0.00083   0.00084   0.00079
  42        6ZZ        -0.00108  -0.00114   0.00104   0.00110   0.00103
  43        6XY         0.00000   0.00018   0.00019   0.00008  -0.00008
  44        6XZ         0.00000   0.00000   0.00000   0.00000   0.00000
  45        6YZ         0.00000   0.00000   0.00000   0.00000   0.00000
  46 4   C  1S          0.40604  -0.12249  -0.56159  -0.13276   0.56043
  47        2S          0.00752  -0.00222  -0.01020  -0.00238   0.01005
  48        3S         -0.00017   0.00012   0.00058   0.00031  -0.00132
  49        4PX        -0.00009   0.00028  -0.00001  -0.00021  -0.00001
  50        4PY        -0.00015  -0.00014   0.00011   0.00010   0.00010
  51        4PZ         0.00000   0.00000   0.00000   0.00000   0.00000
  52        5PX        -0.00006   0.00037   0.00002  -0.00024   0.00005
  53        5PY        -0.00011  -0.00017   0.00021   0.00008   0.00021
  54        5PZ         0.00000   0.00000   0.00000   0.00000   0.00000
  55        6XX        -0.00090   0.00008   0.00130   0.00035  -0.00112
  56        6YY        -0.00098   0.00049   0.00133   0.00019  -0.00118
  57        6ZZ        -0.00108   0.00033   0.00150   0.00035  -0.00147
  58        6XY        -0.00008  -0.00010   0.00014   0.00006  -0.00001
  59        6XZ         0.00000   0.00000   0.00000   0.00000   0.00000
  60        6YZ         0.00000   0.00000   0.00000   0.00000   0.00000
  61 5   C  1S          0.40730  -0.54840  -0.17504   0.55090  -0.16491
  62        2S          0.00754  -0.00996  -0.00318   0.00988  -0.00296
  63        3S         -0.00018   0.00057   0.00018  -0.00130   0.00039
  64        4PX         0.00009   0.00004  -0.00027   0.00002   0.00021
  65        4PY        -0.00015   0.00013  -0.00013   0.00011   0.00009
  66        4PZ         0.00000   0.00000   0.00000   0.00000   0.00000
  67        5PX         0.00006   0.00002  -0.00037  -0.00004   0.00024
  68        5PY        -0.00011   0.00022  -0.00015   0.00022   0.00007
  69        5PZ         0.00000   0.00000   0.00000   0.00000   0.00000
  70        6XX        -0.00090   0.00129   0.00020  -0.00109   0.00041
  71        6YY        -0.00099   0.00127   0.00061  -0.00116   0.00026
  72        6ZZ        -0.00108   0.00147   0.00047  -0.00144   0.00043
  73        6XY         0.00008  -0.00015   0.00009   0.00001  -0.00006
  74        6XZ         0.00000   0.00000   0.00000   0.00000   0.00000
  75        6YZ         0.00000   0.00000   0.00000   0.00000   0.00000
  76 6   C  1S          0.40676  -0.42498   0.38773  -0.41909  -0.39431
  77        2S          0.00753  -0.00772   0.00704  -0.00752  -0.00707
  78        3S         -0.00018   0.00044  -0.00040   0.00099   0.00093
  79        4PX         0.00017  -0.00007   0.00006   0.00006   0.00006
  80        4PY         0.00000  -0.00021  -0.00023   0.00017  -0.00018
  81        4PZ         0.00000   0.00000   0.00000   0.00000   0.00000
  82        5PX         0.00013  -0.00014   0.00013   0.00016   0.00015
  83        5PY         0.00000  -0.00028  -0.00031   0.00018  -0.00019
  84        5PZ         0.00000   0.00000   0.00000   0.00000   0.00000
  85        6XX        -0.00103   0.00108  -0.00098   0.00088   0.00082
  86        6YY        -0.00086   0.00091  -0.00083   0.00084   0.00079
  87        6ZZ        -0.00108   0.00114  -0.00104   0.00110   0.00103
  88        6XY         0.00000  -0.00018  -0.00019   0.00008  -0.00008
  89        6XZ         0.00000   0.00000   0.00000   0.00000   0.00000
  90        6YZ         0.00000   0.00000   0.00000   0.00000   0.00000
  91 7   H  1S          0.00022   0.00007   0.00032  -0.00005   0.00020
  92        2S          0.00017   0.00005   0.00021  -0.00003   0.00013
  93        3PX         0.00004   0.00007   0.00004   0.00002   0.00001
  94        3PY         0.00007  -0.00001   0.00009  -0.00001   0.00000
  95        3PZ         0.00000   0.00000   0.00000   0.00000   0.00000
  96 8   H  1S          0.00022   0.00032   0.00010   0.00019  -0.00006
  97        2S          0.00017   0.00021   0.00007   0.00013  -0.00004
  98        3PX        -0.00004  -0.00003  -0.00007  -0.00001  -0.00002
  99        3PY         0.00007   0.00009   0.00000   0.00000  -0.00001
 100        3PZ         0.00000   0.00000   0.00000   0.00000   0.00000
 101 9   H  1S          0.00022   0.00025  -0.00022  -0.00015  -0.00014
 102        2S          0.00017   0.00016  -0.00015  -0.00010  -0.00009
 103        3PX        -0.00008  -0.00008   0.00007   0.00000   0.00000
 104        3PY         0.00000  -0.00004  -0.00005  -0.00002   0.00002
 105        3PZ         0.00000   0.00000   0.00000   0.00000   0.00000
 106 10  H  1S          0.00022  -0.00007  -0.00032  -0.00005   0.00020
 107        2S          0.00017  -0.00005  -0.00021  -0.00003   0.00013
 108        3PX        -0.00004   0.00007   0.00004  -0.00002  -0.00001
 109        3PY        -0.00007  -0.00001   0.00009   0.00001   0.00000
 110        3PZ         0.00000   0.00000   0.00000   0.00000   0.00000
 111 11  H  1S          0.00022  -0.00032  -0.00010   0.00019  -0.00006
 112        2S          0.00017  -0.00021  -0.00007   0.00013  -0.00004
 113        3PX         0.00004  -0.00003  -0.00007   0.00001   0.00002
 114        3PY        -0.00007   0.00009   0.00000   0.00000   0.00001
 115        3PZ         0.00000   0.00000   0.00000   0.00000   0.00000
 116 12  H  1S          0.00022  -0.00025   0.00022  -0.00015  -0.00014
 117        2S          0.00017  -0.00016   0.00015  -0.00010  -0.00009
 118        3PX         0.00008  -0.00008   0.00007   0.00000   0.00000
 119        3PY         0.00000  -0.00004  -0.00005   0.00002  -0.00002
 120        3PZ         0.00000   0.00000   0.00000   0.00000   0.00000
                           6         7         8         9        10
                           O         O         O         O         O
     Eigenvalues --   -11.24017  -1.14565  -1.01118  -1.01117  -0.82018
   1 1   C  1S         -0.40768  -0.08858   0.00969  -0.12360   0.01765
   2        2S         -0.00743   0.17792  -0.01926   0.24578  -0.03605
   3        3S          0.00367   0.09315  -0.01099   0.14022  -0.03049
   4        4PX         0.00005   0.03176   0.09851   0.02335   0.18046
   5        4PY         0.00009   0.05500  -0.05969   0.02240  -0.09169
   6        4PZ         0.00000  -0.00003   0.00007  -0.00001   0.00011
   7        5PX         0.00075   0.00625   0.03848   0.01327   0.05074
   8        5PY         0.00130   0.01082  -0.02407   0.01587  -0.03073
   9        5PZ         0.00000  -0.00001   0.00003  -0.00001   0.00004
  10        6XX         0.00072   0.01034   0.01274   0.01292   0.01088
  11        6YY         0.00060   0.00609  -0.01396   0.00258  -0.01136
  12        6ZZ         0.00099  -0.00521   0.00055  -0.00706   0.00080
  13        6XY        -0.00013  -0.00425   0.00975  -0.00748   0.00793
  14        6XZ         0.00000   0.00001   0.00000   0.00001   0.00000
  15        6YZ         0.00000  -0.00001   0.00001  -0.00001   0.00001
  16 2   C  1S          0.40646  -0.08858  -0.10220  -0.07019  -0.09171
  17        2S          0.00740   0.17792   0.20322   0.13957   0.18739
  18        3S         -0.00366   0.09315   0.11593   0.07963   0.15849
  19        4PX         0.00005  -0.03175   0.04378  -0.09128  -0.03143
  20        4PY        -0.00009   0.05501   0.05496  -0.03231  -0.08316
  21        4PZ         0.00000  -0.00005  -0.00002  -0.00001   0.00004
  22        5PX         0.00075  -0.00625   0.01388  -0.03827  -0.02068
  23        5PY        -0.00130   0.01082   0.02747  -0.00872  -0.00452
  24        5PZ         0.00000  -0.00001  -0.00001  -0.00001   0.00000
  25        6XX        -0.00072   0.01034   0.00204   0.01803   0.00611
  26        6YY        -0.00059   0.00609   0.01078  -0.00923  -0.00360
  27        6ZZ        -0.00099  -0.00521  -0.00583  -0.00401  -0.00418
  28        6XY        -0.00013   0.00425   0.01195  -0.00289  -0.00055
  29        6XZ         0.00000   0.00000   0.00000   0.00001   0.00000
  30        6YZ         0.00000  -0.00001  -0.00001   0.00000   0.00000
  31 3   C  1S         -0.40700  -0.08858  -0.11188   0.05341   0.07407
  32        2S         -0.00741   0.17792   0.22248  -0.10621  -0.15133
  33        3S          0.00366   0.09315   0.12692  -0.06060  -0.12799
  34        4PX        -0.00010  -0.06351  -0.02815   0.01343  -0.04549
  35        4PY         0.00000   0.00000  -0.04976  -0.10424  -0.13334
  36        4PZ         0.00000  -0.00002   0.00002   0.00007   0.00007
  37        5PX        -0.00150  -0.01249  -0.01845   0.00881   0.00518
  38        5PY         0.00000   0.00000  -0.01960  -0.04106  -0.03911
  39        5PZ         0.00000   0.00000   0.00001   0.00003   0.00003
  40        6XX         0.00053   0.00397  -0.00040   0.00019   0.00061
  41        6YY         0.00078   0.01247   0.01443  -0.00689  -0.00264
  42        6ZZ         0.00099  -0.00521  -0.00639   0.00305   0.00338
  43        6XY         0.00000   0.00000   0.00788   0.01650   0.00995
  44        6XZ         0.00000   0.00000   0.00000  -0.00001  -0.00001
  45        6YZ         0.00000  -0.00001  -0.00001   0.00001   0.00001
  46 4   C  1S          0.40768  -0.08858  -0.00969   0.12360   0.01765
  47        2S          0.00743   0.17792   0.01926  -0.24578  -0.03605
  48        3S         -0.00367   0.09315   0.01099  -0.14022  -0.03049
  49        4PX         0.00005  -0.03176   0.09851   0.02335  -0.18046
  50        4PY         0.00009  -0.05500  -0.05969   0.02240   0.09169
  51        4PZ         0.00000   0.00003   0.00007  -0.00001  -0.00011
  52        5PX         0.00075  -0.00625   0.03848   0.01327  -0.05074
  53        5PY         0.00130  -0.01082  -0.02407   0.01587   0.03073
  54        5PZ         0.00000   0.00001   0.00003  -0.00001  -0.00004
  55        6XX        -0.00072   0.01034  -0.01274  -0.01292   0.01088
  56        6YY        -0.00060   0.00609   0.01396  -0.00258  -0.01136
  57        6ZZ        -0.00099  -0.00521  -0.00055   0.00706   0.00080
  58        6XY         0.00013  -0.00425  -0.00975   0.00748   0.00793
  59        6XZ         0.00000   0.00001   0.00000  -0.00001   0.00000
  60        6YZ         0.00000  -0.00001  -0.00001   0.00001   0.00001
  61 5   C  1S         -0.40646  -0.08858   0.10220   0.07019  -0.09171
  62        2S         -0.00740   0.17792  -0.20322  -0.13957   0.18739
  63        3S          0.00366   0.09315  -0.11593  -0.07963   0.15849
  64        4PX         0.00005   0.03175   0.04378  -0.09128   0.03143
  65        4PY        -0.00009  -0.05501   0.05496  -0.03231   0.08316
  66        4PZ         0.00000   0.00005  -0.00002  -0.00001  -0.00004
  67        5PX         0.00075   0.00625   0.01388  -0.03827   0.02068
  68        5PY        -0.00130  -0.01082   0.02747  -0.00872   0.00452
  69        5PZ         0.00000   0.00001  -0.00001  -0.00001   0.00000
  70        6XX         0.00072   0.01034  -0.00204  -0.01803   0.00611
  71        6YY         0.00059   0.00609  -0.01078   0.00923  -0.00360
  72        6ZZ         0.00099  -0.00521   0.00583   0.00401  -0.00418
  73        6XY         0.00013   0.00425  -0.01195   0.00289  -0.00055
  74        6XZ         0.00000   0.00000   0.00000  -0.00001   0.00000
  75        6YZ         0.00000  -0.00001   0.00001   0.00000   0.00000
  76 6   C  1S          0.40700  -0.08858   0.11188  -0.05341   0.07407
  77        2S          0.00741   0.17792  -0.22248   0.10621  -0.15133
  78        3S         -0.00366   0.09315  -0.12692   0.06060  -0.12799
  79        4PX        -0.00010   0.06351  -0.02815   0.01343   0.04549
  80        4PY         0.00000   0.00000  -0.04976  -0.10424   0.13334
  81        4PZ         0.00000   0.00002   0.00002   0.00007  -0.00007
  82        5PX        -0.00150   0.01249  -0.01845   0.00881  -0.00518
  83        5PY         0.00000   0.00000  -0.01960  -0.04106   0.03911
  84        5PZ         0.00000   0.00000   0.00001   0.00003  -0.00003
  85        6XX        -0.00053   0.00397   0.00040  -0.00019   0.00061
  86        6YY        -0.00078   0.01247  -0.01443   0.00689  -0.00264
  87        6ZZ        -0.00099  -0.00521   0.00639  -0.00305   0.00338
  88        6XY         0.00000   0.00000  -0.00788  -0.01650   0.00995
  89        6XZ         0.00000   0.00000   0.00000   0.00001  -0.00001
  90        6YZ         0.00000  -0.00001   0.00001  -0.00001   0.00001
  91 7   H  1S          0.00003   0.04595  -0.00817   0.10422  -0.02828
  92        2S          0.00016   0.00304  -0.00110   0.01403  -0.00610
  93        3PX         0.00004   0.00376   0.00187   0.00756   0.00158
  94        3PY         0.00007   0.00650  -0.00241   0.01266  -0.00466
  95        3PZ         0.00000   0.00000   0.00000  -0.00001   0.00000
  96 8   H  1S         -0.00003   0.04595   0.08616   0.05918   0.14702
  97        2S         -0.00016   0.00304   0.01160   0.00797   0.03169
  98        3PX         0.00004  -0.00375  -0.00471  -0.00621  -0.00952
  99        3PY        -0.00007   0.00650   0.01136   0.00609   0.01398
 100        3PZ         0.00000  -0.00001  -0.00001  -0.00001  -0.00001
 101 9   H  1S          0.00003   0.04595   0.09433  -0.04504  -0.11874
 102        2S          0.00016   0.00304   0.01270  -0.00607  -0.02559
 103        3PX        -0.00008  -0.00751  -0.01335   0.00637   0.01362
 104        3PY         0.00000   0.00000  -0.00122  -0.00255  -0.00244
 105        3PZ         0.00000   0.00000   0.00000   0.00000   0.00001
 106 10  H  1S         -0.00003   0.04595   0.00817  -0.10422  -0.02828
 107        2S         -0.00016   0.00304   0.00110  -0.01403  -0.00610
 108        3PX         0.00004  -0.00376   0.00187   0.00756  -0.00158
 109        3PY         0.00007  -0.00650  -0.00241   0.01266   0.00466
 110        3PZ         0.00000   0.00000   0.00000  -0.00001   0.00000
 111 11  H  1S          0.00003   0.04595  -0.08616  -0.05918   0.14702
 112        2S          0.00016   0.00304  -0.01160  -0.00797   0.03169
 113        3PX         0.00004   0.00375  -0.00471  -0.00621   0.00952
 114        3PY        -0.00007  -0.00650   0.01136   0.00609  -0.01398
 115        3PZ         0.00000   0.00001  -0.00001  -0.00001   0.00001
 116 12  H  1S         -0.00003   0.04595  -0.09433   0.04504  -0.11874
 117        2S         -0.00016   0.00304  -0.01270   0.00607  -0.02559
 118        3PX        -0.00008   0.00751  -0.01335   0.00637  -0.01362
 119        3PY         0.00000   0.00000  -0.00122  -0.00255   0.00244
 120        3PZ         0.00000   0.00000   0.00000   0.00000  -0.00001
                          11        12        13        14        15
                           O         O         O         O         O
     Eigenvalues --    -0.82017  -0.70331  -0.64065  -0.61361  -0.58326
   1 1   C  1S         -0.09571  -0.00860   0.05593   0.00001   0.00006
   2        2S          0.19556   0.01101  -0.10984  -0.00002  -0.00014
   3        3S          0.16540   0.03057  -0.16683  -0.00003  -0.00020
   4        4PX         0.00288  -0.09467   0.06392   0.23934  -0.07596
   5        4PY        -0.06953  -0.16395   0.11081  -0.13817   0.04274
   6        4PZ         0.00005   0.00008  -0.00005   0.00016  -0.00005
   7        5PX         0.01282  -0.03183   0.00589   0.08386  -0.00126
   8        5PY         0.00033  -0.05511   0.01024  -0.04842   0.00028
   9        5PZ         0.00000   0.00003   0.00000   0.00006   0.00000
  10        6XX         0.00444   0.00058   0.01515   0.00764  -0.01522
  11        6YY        -0.00183  -0.00372  -0.00616  -0.00764   0.01521
  12        6ZZ        -0.00436   0.00054   0.00082   0.00000   0.00000
  13        6XY        -0.00071  -0.00431  -0.02132   0.00509  -0.01011
  14        6XZ         0.00000   0.00000   0.00002   0.00000   0.00000
  15        6YZ         0.00000   0.00000   0.00000   0.00001  -0.00001
  16 2   C  1S          0.03258  -0.00861  -0.05593  -0.00001   0.01605
  17        2S         -0.06656   0.01102   0.10983   0.00002  -0.03829
  18        3S         -0.05629   0.03059   0.16684   0.00003  -0.05169
  19        4PX        -0.17774   0.09464   0.06406  -0.23935   0.08826
  20        4PY        -0.07950  -0.16398  -0.11084  -0.13819  -0.23956
  21        4PZ         0.00000   0.00013   0.00009   0.00002   0.00018
  22        5PX        -0.04807   0.03180   0.00594  -0.08387   0.04964
  23        5PY        -0.03038  -0.05511  -0.01024  -0.04841  -0.08723
  24        5PZ         0.00000   0.00005   0.00001   0.00001   0.00007
  25        6XX         0.01003   0.00058  -0.01517   0.00764   0.00332
  26        6YY        -0.01093  -0.00372   0.00617  -0.00764  -0.00562
  27        6ZZ         0.00149   0.00053  -0.00082   0.00000   0.00025
  28        6XY        -0.00794   0.00430  -0.02132  -0.00510  -0.01120
  29        6XZ         0.00001   0.00000   0.00001   0.00001   0.00001
  30        6YZ         0.00001   0.00000  -0.00001   0.00000   0.00000
  31 3   C  1S          0.06314  -0.00861   0.05593   0.00001   0.01599
  32        2S         -0.12901   0.01101  -0.10983  -0.00003  -0.03814
  33        3S         -0.10911   0.03059  -0.16684  -0.00005  -0.05148
  34        4PX        -0.03876   0.18933  -0.12801  -0.00002   0.25064
  35        4PY         0.15642   0.00001  -0.00004   0.27637   0.04382
  36        4PZ        -0.00011   0.00006  -0.00004  -0.00018   0.00005
  37        5PX         0.00442   0.06362  -0.01184   0.00000   0.09998
  38        5PY         0.04590   0.00000   0.00000   0.09683   0.00062
  39        5PZ        -0.00003   0.00002   0.00000  -0.00006   0.00003
  40        6XX         0.00052  -0.00587  -0.01683   0.00000   0.00500
  41        6YY        -0.00225   0.00273   0.02582   0.00000  -0.00729
  42        6ZZ         0.00288   0.00053   0.00082   0.00000   0.00025
  43        6XY        -0.01167   0.00000   0.00000  -0.01019  -0.01019
  44        6XZ         0.00001   0.00000  -0.00001   0.00001   0.00001
  45        6YZ         0.00000   0.00000  -0.00002   0.00000   0.00000
  46 4   C  1S         -0.09571  -0.00860  -0.05593  -0.00001  -0.00006
  47        2S          0.19556   0.01101   0.10984   0.00002   0.00014
  48        3S          0.16540   0.03057   0.16683   0.00003   0.00020
  49        4PX        -0.00288   0.09467   0.06392   0.23934  -0.07596
  50        4PY         0.06953   0.16395   0.11081  -0.13817   0.04274
  51        4PZ        -0.00005  -0.00008  -0.00005   0.00016  -0.00005
  52        5PX        -0.01282   0.03183   0.00589   0.08386  -0.00126
  53        5PY        -0.00033   0.05511   0.01024  -0.04842   0.00028
  54        5PZ         0.00000  -0.00003   0.00000   0.00006   0.00000
  55        6XX         0.00444   0.00058  -0.01515  -0.00764   0.01522
  56        6YY        -0.00183  -0.00372   0.00616   0.00764  -0.01521
  57        6ZZ        -0.00436   0.00054  -0.00082   0.00000   0.00000
  58        6XY        -0.00071  -0.00431   0.02132  -0.00509   0.01011
  59        6XZ         0.00000   0.00000  -0.00002   0.00000   0.00000
  60        6YZ         0.00000   0.00000   0.00000  -0.00001   0.00001
  61 5   C  1S          0.03258  -0.00861   0.05593   0.00001  -0.01605
  62        2S         -0.06656   0.01102  -0.10983  -0.00002   0.03829
  63        3S         -0.05629   0.03059  -0.16684  -0.00003   0.05169
  64        4PX         0.17774  -0.09464   0.06406  -0.23935   0.08826
  65        4PY         0.07950   0.16398  -0.11084  -0.13819  -0.23956
  66        4PZ         0.00000  -0.00013   0.00009   0.00002   0.00018
  67        5PX         0.04807  -0.03180   0.00594  -0.08387   0.04964
  68        5PY         0.03038   0.05511  -0.01024  -0.04841  -0.08723
  69        5PZ         0.00000  -0.00005   0.00001   0.00001   0.00007
  70        6XX         0.01003   0.00058   0.01517  -0.00764  -0.00332
  71        6YY        -0.01093  -0.00372  -0.00617   0.00764   0.00562
  72        6ZZ         0.00149   0.00053   0.00082   0.00000  -0.00025
  73        6XY        -0.00794   0.00430   0.02132   0.00510   0.01120
  74        6XZ         0.00001   0.00000  -0.00001  -0.00001  -0.00001
  75        6YZ         0.00001   0.00000   0.00001   0.00000   0.00000
  76 6   C  1S          0.06314  -0.00861  -0.05593  -0.00001  -0.01599
  77        2S         -0.12901   0.01101   0.10983   0.00003   0.03814
  78        3S         -0.10911   0.03059   0.16684   0.00005   0.05148
  79        4PX         0.03876  -0.18933  -0.12801  -0.00002   0.25064
  80        4PY        -0.15642  -0.00001  -0.00004   0.27637   0.04382
  81        4PZ         0.00011  -0.00006  -0.00004  -0.00018   0.00005
  82        5PX        -0.00442  -0.06362  -0.01184   0.00000   0.09998
  83        5PY        -0.04590   0.00000   0.00000   0.09683   0.00062
  84        5PZ         0.00003  -0.00002   0.00000  -0.00006   0.00003
  85        6XX         0.00052  -0.00587   0.01683   0.00000  -0.00500
  86        6YY        -0.00225   0.00273  -0.02582   0.00000   0.00729
  87        6ZZ         0.00288   0.00053  -0.00082   0.00000  -0.00025
  88        6XY        -0.01167   0.00000   0.00000   0.01019   0.01019
  89        6XZ         0.00001   0.00000   0.00001  -0.00001  -0.00001
  90        6YZ         0.00000   0.00000   0.00002   0.00000   0.00000
  91 7   H  1S          0.15343   0.15013  -0.18497  -0.00004   0.00075
  92        2S          0.03307   0.03656  -0.07043  -0.00002   0.00027
  93        3PX         0.00939   0.00661  -0.00709   0.00460  -0.00420
  94        3PY         0.01490   0.01146  -0.01228  -0.00266   0.00248
  95        3PZ        -0.00001  -0.00001   0.00001   0.00000   0.00000
  96 8   H  1S         -0.05222   0.15014   0.18504   0.00004   0.19405
  97        2S         -0.01126   0.03657   0.07046   0.00002   0.07001
  98        3PX        -0.00007  -0.00661  -0.00709  -0.00461  -0.00854
  99        3PY        -0.00696   0.01146   0.01228  -0.00266   0.00994
 100        3PZ         0.00000  -0.00001  -0.00001   0.00000  -0.00001
 101 9   H  1S         -0.10121   0.15014  -0.18503  -0.00003   0.19332
 102        2S         -0.02182   0.03657  -0.07045  -0.00001   0.06975
 103        3PX         0.01161  -0.01323   0.01418   0.00000  -0.01283
 104        3PY         0.00286   0.00000   0.00000   0.00532   0.00245
 105        3PZ         0.00000   0.00000   0.00000   0.00000  -0.00001
 106 10  H  1S          0.15343   0.15013   0.18497   0.00004  -0.00075
 107        2S          0.03307   0.03656   0.07043   0.00002  -0.00027
 108        3PX        -0.00939  -0.00661  -0.00709   0.00460  -0.00420
 109        3PY        -0.01490  -0.01146  -0.01228  -0.00266   0.00248
 110        3PZ         0.00001   0.00001   0.00001   0.00000   0.00000
 111 11  H  1S         -0.05222   0.15014  -0.18504  -0.00004  -0.19405
 112        2S         -0.01126   0.03657  -0.07046  -0.00002  -0.07001
 113        3PX         0.00007   0.00661  -0.00709  -0.00461  -0.00854
 114        3PY         0.00696  -0.01146   0.01228  -0.00266   0.00994
 115        3PZ         0.00000   0.00001  -0.00001   0.00000  -0.00001
 116 12  H  1S         -0.10121   0.15014   0.18503   0.00003  -0.19332
 117        2S         -0.02182   0.03657   0.07045   0.00001  -0.06975
 118        3PX        -0.01161   0.01323   0.01418   0.00000  -0.01283
 119        3PY        -0.00286   0.00000   0.00000   0.00532   0.00245
 120        3PZ         0.00000   0.00000   0.00000   0.00000  -0.00001
                          16        17        18        19        20
                           O         O         O         O         O
     Eigenvalues --    -0.58322  -0.49727  -0.49033  -0.49031  -0.33284
   1 1   C  1S         -0.01850   0.00000   0.00033   0.00339   0.00000
   2        2S          0.04413   0.00000  -0.00136  -0.01391   0.00000
   3        3S          0.05956   0.00000   0.00004   0.00044   0.00000
   4        4PX         0.14476  -0.00007   0.20983  -0.13103   0.00001
   5        4PY         0.25129   0.00014  -0.14584  -0.17723  -0.00002
   6        4PZ        -0.00012   0.21537   0.00016   0.00007  -0.02695
   7        5PX         0.05785  -0.00004   0.08562  -0.05428   0.00001
   8        5PY         0.10018   0.00008  -0.05969  -0.07371  -0.00001
   9        5PZ        -0.00005   0.12897   0.00006   0.00003  -0.02178
  10        6XX         0.00483   0.00000   0.01415  -0.01604  -0.00001
  11        6YY        -0.00218   0.00001  -0.01418   0.01563  -0.00002
  12        6ZZ        -0.00029  -0.00001  -0.00001  -0.00007   0.00003
  13        6XY        -0.00715   0.00000   0.01317   0.02763   0.00002
  14        6XZ         0.00001   0.00782   0.00000  -0.00002   0.02541
  15        6YZ         0.00000   0.01354   0.00001   0.00000  -0.01590
  16 2   C  1S         -0.00921   0.00000  -0.00310  -0.00141   0.00000
  17        2S          0.02197   0.00000   0.01273   0.00578   0.00000
  18        3S          0.02965   0.00000  -0.00041  -0.00019   0.00000
  19        4PX        -0.13754  -0.00007  -0.19178   0.15626  -0.00008
  20        4PY         0.08702   0.00014   0.12062   0.19526   0.00017
  21        4PZ        -0.00010   0.21537  -0.00014  -0.00008   0.26317
  22        5PX        -0.02969  -0.00004  -0.07904   0.06352  -0.00006
  23        5PY         0.04925   0.00008   0.05046   0.08030   0.00014
  24        5PZ        -0.00004   0.12897  -0.00006  -0.00003   0.21267
  25        6XX         0.01561   0.00000   0.01975  -0.00820  -0.00001
  26        6YY        -0.01430   0.00002  -0.01938   0.00836   0.00002
  27        6ZZ        -0.00014  -0.00002   0.00006   0.00003  -0.00001
  28        6XY        -0.00527  -0.00001   0.02188   0.02139   0.00000
  29        6XZ         0.00001  -0.00782  -0.00001  -0.00002   0.00968
  30        6YZ         0.00001   0.01354   0.00002   0.00000   0.01758
  31 3   C  1S          0.00932   0.00000   0.00277  -0.00199   0.00000
  32        2S         -0.02222   0.00000  -0.01136   0.00814   0.00000
  33        3S         -0.02999   0.00000   0.00037  -0.00025   0.00000
  34        4PX         0.14580  -0.00007   0.17897  -0.12800  -0.00009
  35        4PY        -0.07533   0.00014  -0.14884  -0.20810   0.00019
  36        4PZ         0.00009   0.21538   0.00015   0.00010   0.29012
  37        5PX         0.05817  -0.00004   0.07434  -0.05316  -0.00007
  38        5PY        -0.00109   0.00008  -0.06081  -0.08499   0.00015
  39        5PZ         0.00002   0.12897   0.00006   0.00004   0.23445
  40        6XX         0.00291   0.00001   0.02324  -0.01662   0.00001
  41        6YY        -0.00423   0.00000  -0.02357   0.01686  -0.00001
  42        6ZZ         0.00014  -0.00001  -0.00005   0.00004   0.00001
  43        6XY         0.01752  -0.00001   0.01213   0.01695   0.00000
  44        6XZ        -0.00001  -0.01564   0.00000  -0.00002  -0.01145
  45        6YZ         0.00001   0.00000   0.00002  -0.00001  -0.01279
  46 4   C  1S          0.01850   0.00000   0.00033   0.00339   0.00000
  47        2S         -0.04413   0.00000  -0.00136  -0.01391   0.00000
  48        3S         -0.05956   0.00000   0.00004   0.00044   0.00000
  49        4PX         0.14476  -0.00007  -0.20983   0.13103  -0.00001
  50        4PY         0.25129   0.00014   0.14584   0.17723   0.00002
  51        4PZ        -0.00012   0.21537  -0.00016  -0.00007   0.02695
  52        5PX         0.05785  -0.00004  -0.08562   0.05428  -0.00001
  53        5PY         0.10018   0.00008   0.05969   0.07371   0.00001
  54        5PZ        -0.00005   0.12897  -0.00006  -0.00003   0.02178
  55        6XX        -0.00483   0.00000   0.01415  -0.01604  -0.00001
  56        6YY         0.00218  -0.00002  -0.01418   0.01563  -0.00002
  57        6ZZ         0.00029   0.00001  -0.00001  -0.00007   0.00003
  58        6XY         0.00715   0.00000   0.01317   0.02763   0.00002
  59        6XZ        -0.00001  -0.00782   0.00000  -0.00002   0.02541
  60        6YZ         0.00000  -0.01354   0.00001   0.00000  -0.01590
  61 5   C  1S          0.00921   0.00000  -0.00310  -0.00141   0.00000
  62        2S         -0.02197   0.00000   0.01273   0.00578   0.00000
  63        3S         -0.02965   0.00000  -0.00041  -0.00019   0.00000
  64        4PX        -0.13754  -0.00007   0.19178  -0.15626   0.00008
  65        4PY         0.08702   0.00014  -0.12062  -0.19526  -0.00017
  66        4PZ        -0.00010   0.21537   0.00014   0.00008  -0.26317
  67        5PX        -0.02969  -0.00004   0.07904  -0.06352   0.00006
  68        5PY         0.04925   0.00008  -0.05046  -0.08030  -0.00014
  69        5PZ        -0.00004   0.12897   0.00006   0.00003  -0.21267
  70        6XX        -0.01561   0.00000   0.01975  -0.00820  -0.00001
  71        6YY         0.01430  -0.00002  -0.01938   0.00836   0.00002
  72        6ZZ         0.00014   0.00002   0.00006   0.00003  -0.00001
  73        6XY         0.00527   0.00001   0.02188   0.02139   0.00000
  74        6XZ        -0.00001   0.00782  -0.00001  -0.00002   0.00968
  75        6YZ        -0.00001  -0.01354   0.00002   0.00000   0.01758
  76 6   C  1S         -0.00932   0.00000   0.00277  -0.00199   0.00000
  77        2S          0.02222   0.00000  -0.01136   0.00814   0.00000
  78        3S          0.02999   0.00000   0.00037  -0.00025   0.00000
  79        4PX         0.14580  -0.00007  -0.17897   0.12800   0.00009
  80        4PY        -0.07533   0.00014   0.14884   0.20810  -0.00019
  81        4PZ         0.00009   0.21538  -0.00015  -0.00009  -0.29012
  82        5PX         0.05817  -0.00004  -0.07434   0.05316   0.00007
  83        5PY        -0.00109   0.00008   0.06081   0.08499  -0.00015
  84        5PZ         0.00002   0.12897  -0.00006  -0.00004  -0.23445
  85        6XX        -0.00291  -0.00001   0.02324  -0.01662   0.00001
  86        6YY         0.00423   0.00000  -0.02357   0.01686  -0.00001
  87        6ZZ        -0.00014   0.00001  -0.00005   0.00004   0.00001
  88        6XY        -0.01752   0.00001   0.01213   0.01695   0.00000
  89        6XZ         0.00001   0.01564   0.00000  -0.00002  -0.01145
  90        6YZ        -0.00001   0.00000   0.00002  -0.00001  -0.01279
  91 7   H  1S         -0.22368   0.00000   0.02124   0.21765   0.00000
  92        2S         -0.08071   0.00000   0.01112   0.11400   0.00000
  93        3PX        -0.00744   0.00000   0.00743   0.00456   0.00000
  94        3PY        -0.01285   0.00000  -0.00311   0.00946   0.00000
  95        3PZ         0.00001   0.00736   0.00000   0.00000  -0.00101
  96 8   H  1S         -0.11113   0.00000  -0.19910  -0.09043   0.00000
  97        2S         -0.04010   0.00000  -0.10427  -0.04737   0.00000
  98        3PX         0.00002   0.00000   0.00191   0.00851   0.00000
  99        3PY        -0.00850   0.00000  -0.00996  -0.00011   0.00001
 100        3PZ         0.00001   0.00736   0.00001   0.00000   0.00985
 101 9   H  1S          0.11242   0.00000   0.17786  -0.12722   0.00000
 102        2S          0.04056   0.00000   0.09315  -0.06663   0.00000
 103        3PX        -0.00746   0.00000  -0.00856   0.00612   0.00000
 104        3PY        -0.00422   0.00000  -0.00467  -0.00653   0.00001
 105        3PZ         0.00000   0.00736   0.00000   0.00001   0.01086
 106 10  H  1S          0.22368   0.00000   0.02124   0.21765   0.00000
 107        2S          0.08071   0.00000   0.01112   0.11400   0.00000
 108        3PX        -0.00744   0.00000  -0.00743  -0.00456   0.00000
 109        3PY        -0.01285   0.00000   0.00311  -0.00946   0.00000
 110        3PZ         0.00001   0.00736   0.00000   0.00000   0.00101
 111 11  H  1S          0.11113   0.00000  -0.19910  -0.09043   0.00000
 112        2S          0.04010   0.00000  -0.10427  -0.04737   0.00000
 113        3PX         0.00002   0.00000  -0.00191  -0.00851   0.00000
 114        3PY        -0.00850   0.00000   0.00996   0.00011  -0.00001
 115        3PZ         0.00001   0.00736  -0.00001   0.00000  -0.00985
 116 12  H  1S         -0.11242   0.00000   0.17786  -0.12722   0.00000
 117        2S         -0.04056   0.00000   0.09315  -0.06663   0.00000
 118        3PX        -0.00746   0.00000   0.00856  -0.00612   0.00000
 119        3PY        -0.00422   0.00000   0.00467   0.00653  -0.00001
 120        3PZ         0.00000   0.00736   0.00000  -0.00001  -0.01086
                          21        22        23        24        25
                           O         V         V         V         V
     Eigenvalues --    -0.33283   0.13631   0.13631   0.18153   0.21959
   1 1   C  1S          0.00000   0.00000   0.00000   0.03835  -0.02672
   2        2S          0.00000   0.00000   0.00000  -0.02893   0.00934
   3        3S          0.00000   0.00000   0.00000  -0.60075   0.74319
   4        4PX        -0.00010   0.00003  -0.00009   0.04666  -0.06129
   5        4PY         0.00020  -0.00005   0.00019   0.08081  -0.09502
   6        4PZ         0.31945  -0.08436   0.30186  -0.00004   0.00004
   7        5PX        -0.00008   0.00005  -0.00017   0.14089  -0.11173
   8        5PY         0.00017  -0.00010   0.00036   0.24404  -0.47471
   9        5PZ         0.25816  -0.15613   0.55871  -0.00011   0.00027
  10        6XX         0.00000  -0.00002   0.00000   0.00324  -0.00525
  11        6YY         0.00001  -0.00002  -0.00002   0.01177  -0.00130
  12        6ZZ        -0.00001   0.00004   0.00002   0.01473  -0.01294
  13        6XY         0.00000   0.00003   0.00001   0.00853   0.00526
  14        6XZ         0.00849   0.03416   0.00369  -0.00001   0.00000
  15        6YZ         0.00965  -0.01622  -0.01467   0.00000  -0.00001
  16 2   C  1S          0.00000   0.00000   0.00000   0.03835   0.01004
  17        2S          0.00000   0.00000   0.00000  -0.02894  -0.00349
  18        3S          0.00000   0.00000   0.00000  -0.60075  -0.27935
  19        4PX        -0.00006  -0.00009   0.00002  -0.04664  -0.02773
  20        4PY         0.00012   0.00020  -0.00005   0.08081   0.03296
  21        4PZ         0.18306   0.30360  -0.07788  -0.00007  -0.00003
  22        5PX        -0.00005  -0.00017   0.00004  -0.14091   0.07760
  23        5PY         0.00010   0.00036  -0.00009   0.24410   0.24703
  24        5PZ         0.14794   0.56192  -0.14414  -0.00020  -0.00013
  25        6XX         0.00001   0.00000   0.00002   0.00324   0.00149
  26        6YY        -0.00001  -0.00002  -0.00002   0.01177   0.00097
  27        6ZZ        -0.00001   0.00001   0.00000   0.01472   0.00486
  28        6XY        -0.00001   0.00000  -0.00002  -0.00852   0.00229
  29        6XZ        -0.02499  -0.00296  -0.03423   0.00000   0.00000
  30        6YZ        -0.00608  -0.01432  -0.01652   0.00000   0.00000
  31 3   C  1S          0.00000   0.00000   0.00000   0.03835   0.03677
  32        2S          0.00000   0.00000   0.00000  -0.02894  -0.01288
  33        3S          0.00000   0.00000   0.00000  -0.60074  -1.02185
  34        4PX         0.00004   0.00007   0.00007  -0.09330  -0.15535
  35        4PY        -0.00009  -0.00014  -0.00014  -0.00001  -0.00198
  36        4PZ        -0.13638  -0.21924  -0.22399  -0.00003  -0.00005
  37        5PX         0.00003   0.00013   0.00013  -0.28186  -0.64284
  38        5PY        -0.00007  -0.00026  -0.00027  -0.00005   0.05004
  39        5PZ        -0.11022  -0.40578  -0.41457  -0.00009  -0.00023
  40        6XX         0.00000   0.00000   0.00000   0.01603  -0.00227
  41        6YY        -0.00003  -0.00003   0.00003  -0.00102   0.01131
  42        6ZZ         0.00003   0.00003  -0.00003   0.01472   0.01779
  43        6XY         0.00001   0.00000  -0.00001   0.00000  -0.00023
  44        6XZ         0.00538  -0.00789  -0.00806   0.00000  -0.00001
  45        6YZ        -0.02721  -0.02797   0.02738   0.00001   0.00000
  46 4   C  1S          0.00000   0.00000   0.00000   0.03835   0.02672
  47        2S          0.00000   0.00000   0.00000  -0.02893  -0.00934
  48        3S          0.00000   0.00000   0.00000  -0.60075  -0.74319
  49        4PX         0.00010   0.00003  -0.00009  -0.04666  -0.06129
  50        4PY        -0.00020  -0.00005   0.00019  -0.08081  -0.09502
  51        4PZ        -0.31945  -0.08436   0.30186   0.00004   0.00004
  52        5PX         0.00008   0.00005  -0.00017  -0.14089  -0.11173
  53        5PY        -0.00017  -0.00010   0.00036  -0.24404  -0.47471
  54        5PZ        -0.25816  -0.15613   0.55871   0.00011   0.00027
  55        6XX         0.00000   0.00002   0.00000   0.00324   0.00525
  56        6YY         0.00001   0.00002   0.00002   0.01177   0.00130
  57        6ZZ        -0.00001  -0.00004  -0.00002   0.01473   0.01294
  58        6XY         0.00000  -0.00003  -0.00001   0.00853  -0.00526
  59        6XZ         0.00849  -0.03416  -0.00369  -0.00001   0.00000
  60        6YZ         0.00965   0.01622   0.01467   0.00000   0.00001
  61 5   C  1S          0.00000   0.00000   0.00000   0.03835  -0.01004
  62        2S          0.00000   0.00000   0.00000  -0.02894   0.00349
  63        3S          0.00000   0.00000   0.00000  -0.60075   0.27935
  64        4PX         0.00006  -0.00009   0.00002   0.04664  -0.02773
  65        4PY        -0.00012   0.00020  -0.00005  -0.08081   0.03296
  66        4PZ        -0.18306   0.30360  -0.07788   0.00007  -0.00003
  67        5PX         0.00005  -0.00017   0.00004   0.14091   0.07760
  68        5PY        -0.00010   0.00036  -0.00009  -0.24410   0.24703
  69        5PZ        -0.14794   0.56192  -0.14414   0.00020  -0.00013
  70        6XX         0.00001   0.00000  -0.00002   0.00324  -0.00149
  71        6YY        -0.00001   0.00002   0.00002   0.01177  -0.00097
  72        6ZZ        -0.00001  -0.00001   0.00000   0.01472  -0.00486
  73        6XY        -0.00001   0.00000   0.00002  -0.00852  -0.00229
  74        6XZ        -0.02499   0.00296   0.03423   0.00000   0.00000
  75        6YZ        -0.00608   0.01432   0.01652   0.00000   0.00000
  76 6   C  1S          0.00000   0.00000   0.00000   0.03835  -0.03677
  77        2S          0.00000   0.00000   0.00000  -0.02894   0.01288
  78        3S          0.00000   0.00000   0.00000  -0.60074   1.02185
  79        4PX        -0.00004   0.00007   0.00007   0.09330  -0.15535
  80        4PY         0.00009  -0.00014  -0.00014   0.00001  -0.00198
  81        4PZ         0.13638  -0.21924  -0.22399   0.00003  -0.00005
  82        5PX        -0.00003   0.00013   0.00013   0.28186  -0.64284
  83        5PY         0.00007  -0.00026  -0.00027   0.00005   0.05004
  84        5PZ         0.11022  -0.40578  -0.41457   0.00009  -0.00023
  85        6XX         0.00000   0.00000   0.00000   0.01603   0.00227
  86        6YY        -0.00003   0.00003  -0.00003  -0.00102  -0.01131
  87        6ZZ         0.00003  -0.00003   0.00003   0.01472  -0.01779
  88        6XY         0.00001   0.00000   0.00001   0.00000   0.00023
  89        6XZ         0.00538   0.00789   0.00806   0.00000   0.00001
  90        6YZ        -0.02721   0.02797  -0.02738   0.00001   0.00000
  91 7   H  1S          0.00000   0.00000   0.00000   0.02781  -0.00170
  92        2S          0.00000   0.00000   0.00000   0.76316  -0.92944
  93        3PX         0.00000   0.00000   0.00000   0.00276  -0.00860
  94        3PY         0.00001   0.00000   0.00001   0.00477  -0.01059
  95        3PZ         0.01196  -0.00451   0.01614   0.00000   0.00000
  96 8   H  1S          0.00000   0.00000   0.00000   0.02782   0.00064
  97        2S          0.00000   0.00000   0.00000   0.76320   0.34892
  98        3PX         0.00000   0.00000   0.00000  -0.00276  -0.00506
  99        3PY         0.00000   0.00001   0.00000   0.00477   0.00292
 100        3PZ         0.00685   0.01624  -0.00416   0.00000   0.00000
 101 9   H  1S          0.00000   0.00000   0.00000   0.02781   0.00235
 102        2S          0.00000   0.00000   0.00000   0.76321   1.27884
 103        3PX         0.00000   0.00000   0.00000  -0.00551  -0.01852
 104        3PY         0.00000  -0.00001  -0.00001   0.00000  -0.00077
 105        3PZ        -0.00511  -0.01172  -0.01198   0.00000  -0.00001
 106 10  H  1S          0.00000   0.00000   0.00000   0.02781   0.00170
 107        2S          0.00000   0.00000   0.00000   0.76316   0.92944
 108        3PX         0.00000   0.00000   0.00000  -0.00276  -0.00860
 109        3PY        -0.00001   0.00000   0.00001  -0.00477  -0.01059
 110        3PZ        -0.01196  -0.00451   0.01614   0.00000   0.00000
 111 11  H  1S          0.00000   0.00000   0.00000   0.02782  -0.00064
 112        2S          0.00000   0.00000   0.00000   0.76320  -0.34892
 113        3PX         0.00000   0.00000   0.00000   0.00276  -0.00506
 114        3PY         0.00000   0.00001   0.00000  -0.00477   0.00292
 115        3PZ        -0.00685   0.01624  -0.00416   0.00000   0.00000
 116 12  H  1S          0.00000   0.00000   0.00000   0.02781  -0.00235
 117        2S          0.00000   0.00000   0.00000   0.76321  -1.27884
 118        3PX         0.00000   0.00000   0.00000   0.00551  -0.01852
 119        3PY         0.00000  -0.00001  -0.00001   0.00000  -0.00077
 120        3PZ         0.00511  -0.01172  -0.01198   0.00000  -0.00001
                          26        27        28        29        30
                           V         V         V         V         V
     Eigenvalues --     0.21959   0.25507   0.25508   0.27124   0.34880
   1 1   C  1S          0.02702  -0.00737   0.05843  -0.03108   0.00000
   2        2S         -0.00943   0.00900  -0.07132   0.12106   0.00000
   3        3S         -0.75146   0.12860  -1.02012  -1.07356   0.00000
   4        4PX         0.05233   0.02556   0.05053  -0.02904  -0.00007
   5        4PY         0.10162  -0.02832   0.07836  -0.05031   0.00015
   6        4PZ        -0.00005   0.00003  -0.00003   0.00002   0.23522
   7        5PX         0.35645   0.13307   0.49226  -0.88079  -0.00022
   8        5PY         0.33921  -0.21315   0.79657  -1.52531   0.00047
   9        5PZ        -0.00011   0.00018  -0.00036   0.00071   0.73764
  10        6XX         0.00629  -0.01103   0.01091  -0.03506   0.00000
  11        6YY         0.00033   0.00977  -0.00096  -0.02280  -0.00002
  12        6ZZ         0.01309  -0.00134   0.01066   0.02095   0.00001
  13        6XY        -0.00467  -0.00453  -0.01507   0.01226   0.00000
  14        6XZ         0.00000   0.00000   0.00001  -0.00003  -0.00820
  15        6YZ         0.00001  -0.00001   0.00000   0.00004  -0.01421
  16 2   C  1S          0.03666   0.05428  -0.02283   0.03107   0.00000
  17        2S         -0.01285  -0.06627   0.02788  -0.12107   0.00000
  18        3S         -1.01882  -0.94753   0.39870   1.07415   0.00000
  19        4PX        -0.07565  -0.05555  -0.01102  -0.02902   0.00007
  20        4PY         0.13519   0.06785  -0.04838   0.05027  -0.00015
  21        4PZ        -0.00011  -0.00006   0.00003  -0.00004  -0.23521
  22        5PX        -0.36567  -0.50988   0.00426  -0.88034   0.00023
  23        5PY         0.52909   0.70986  -0.41989   1.52552  -0.00047
  24        5PZ        -0.00045  -0.00061   0.00027  -0.00125  -0.73765
  25        6XX         0.00807   0.00755  -0.01356   0.03506   0.00000
  26        6YY         0.00094   0.00170   0.00967   0.02281   0.00002
  27        6ZZ         0.01774   0.00990  -0.00416  -0.02096  -0.00002
  28        6XY         0.00665   0.01573   0.00031   0.01224  -0.00001
  29        6XZ        -0.00001  -0.00001   0.00000   0.00001  -0.00821
  30        6YZ         0.00001   0.00001  -0.00001  -0.00003   0.01422
  31 3   C  1S          0.00964  -0.04691  -0.03559  -0.03107   0.00000
  32        2S         -0.00335   0.05727   0.04346   0.12106   0.00000
  33        3S         -0.26825   0.81892   0.62147  -1.07407   0.00000
  34        4PX        -0.04071   0.07479   0.05673   0.05805  -0.00007
  35        4PY         0.00756  -0.02212   0.02915   0.00001   0.00015
  36        4PZ        -0.00002   0.00004   0.00000   0.00002   0.23521
  37        5PX        -0.16810   0.75163   0.57025   1.76134  -0.00023
  38        5PY        -0.19130  -0.13516   0.17826   0.00023   0.00047
  39        5PZ         0.00007   0.00032   0.00006   0.00054   0.73766
  40        6XX        -0.00060   0.00746   0.00567  -0.01669  -0.00001
  41        6YY         0.00295  -0.01546  -0.01173  -0.04118   0.00000
  42        6ZZ         0.00467  -0.00856  -0.00649   0.02096   0.00001
  43        6XY         0.00089  -0.00771   0.01017   0.00000   0.00001
  44        6XZ         0.00000   0.00001   0.00000  -0.00001   0.01641
  45        6YZ         0.00000   0.00000   0.00001   0.00005   0.00000
  46 4   C  1S         -0.02702  -0.00737   0.05843   0.03108   0.00000
  47        2S          0.00943   0.00900  -0.07132  -0.12106   0.00000
  48        3S          0.75146   0.12860  -1.02012   1.07356   0.00000
  49        4PX         0.05233  -0.02556  -0.05053  -0.02904   0.00007
  50        4PY         0.10162   0.02832  -0.07836  -0.05031  -0.00015
  51        4PZ        -0.00005  -0.00003   0.00003   0.00002  -0.23522
  52        5PX         0.35645  -0.13307  -0.49226  -0.88079   0.00022
  53        5PY         0.33921   0.21315  -0.79657  -1.52531  -0.00047
  54        5PZ        -0.00011  -0.00018   0.00036   0.00071  -0.73764
  55        6XX        -0.00629  -0.01103   0.01091   0.03506   0.00000
  56        6YY        -0.00033   0.00977  -0.00096   0.02280  -0.00002
  57        6ZZ        -0.01309  -0.00134   0.01066  -0.02095   0.00001
  58        6XY         0.00467  -0.00453  -0.01507  -0.01226   0.00000
  59        6XZ         0.00000   0.00000   0.00001   0.00003  -0.00820
  60        6YZ        -0.00001  -0.00001   0.00000  -0.00004  -0.01421
  61 5   C  1S         -0.03666   0.05428  -0.02283  -0.03107   0.00000
  62        2S          0.01285  -0.06627   0.02788   0.12107   0.00000
  63        3S          1.01882  -0.94753   0.39870  -1.07415   0.00000
  64        4PX        -0.07565   0.05555   0.01102  -0.02902  -0.00007
  65        4PY         0.13519  -0.06785   0.04838   0.05027   0.00015
  66        4PZ        -0.00011   0.00006  -0.00003  -0.00004   0.23521
  67        5PX        -0.36567   0.50988  -0.00426  -0.88034  -0.00023
  68        5PY         0.52909  -0.70986   0.41989   1.52552   0.00047
  69        5PZ        -0.00045   0.00061  -0.00027  -0.00125   0.73765
  70        6XX        -0.00807   0.00755  -0.01356  -0.03506   0.00000
  71        6YY        -0.00094   0.00170   0.00967  -0.02281   0.00002
  72        6ZZ        -0.01774   0.00990  -0.00416   0.02096  -0.00002
  73        6XY        -0.00665   0.01573   0.00031  -0.01224  -0.00001
  74        6XZ         0.00001  -0.00001   0.00000  -0.00001  -0.00821
  75        6YZ        -0.00001   0.00001  -0.00001   0.00003   0.01422
  76 6   C  1S         -0.00964  -0.04691  -0.03559   0.03107   0.00000
  77        2S          0.00335   0.05727   0.04346  -0.12106   0.00000
  78        3S          0.26825   0.81892   0.62147   1.07407   0.00000
  79        4PX        -0.04071  -0.07479  -0.05673   0.05805   0.00007
  80        4PY         0.00756   0.02212  -0.02915   0.00001  -0.00015
  81        4PZ        -0.00002  -0.00004   0.00000   0.00002  -0.23521
  82        5PX        -0.16810  -0.75163  -0.57025   1.76134   0.00023
  83        5PY        -0.19130   0.13516  -0.17826   0.00023  -0.00047
  84        5PZ         0.00007  -0.00032  -0.00006   0.00054  -0.73765
  85        6XX         0.00060   0.00746   0.00567   0.01669  -0.00001
  86        6YY        -0.00295  -0.01546  -0.01173   0.04118   0.00000
  87        6ZZ        -0.00467  -0.00856  -0.00649  -0.02096   0.00001
  88        6XY        -0.00089  -0.00771   0.01017   0.00000   0.00001
  89        6XZ         0.00000   0.00001   0.00000   0.00001   0.01641
  90        6YZ         0.00000   0.00000   0.00001  -0.00005   0.00000
  91 7   H  1S          0.00172   0.00015  -0.00120  -0.03577   0.00000
  92        2S          0.93957  -0.19512   1.54729  -1.51035   0.00000
  93        3PX         0.00497   0.00487   0.01049   0.00217  -0.00001
  94        3PY         0.01286  -0.00564   0.01639   0.00376   0.00001
  95        3PZ        -0.00001   0.00001  -0.00001   0.00000   0.01990
  96 8   H  1S          0.00235  -0.00111   0.00047   0.03577   0.00000
  97        2S          1.27517   1.43759  -0.60470   1.51002   0.00000
  98        3PX        -0.00854  -0.01141  -0.00187   0.00217   0.00001
  99        3PY         0.01639   0.01427  -0.00985  -0.00377  -0.00001
 100        3PZ        -0.00001  -0.00001   0.00001   0.00000  -0.01990
 101 9   H  1S          0.00061   0.00096   0.00074  -0.03577   0.00000
 102        2S          0.33497  -1.24244  -0.94269  -1.51009   0.00000
 103        3PX        -0.00486   0.01561   0.01184  -0.00435  -0.00001
 104        3PY         0.00293  -0.00429   0.00565   0.00000   0.00001
 105        3PZ         0.00000   0.00001   0.00000   0.00000   0.01990
 106 10  H  1S         -0.00172   0.00015  -0.00120   0.03577   0.00000
 107        2S         -0.93957  -0.19512   1.54729   1.51035   0.00000
 108        3PX         0.00497  -0.00487  -0.01049   0.00217   0.00001
 109        3PY         0.01286   0.00564  -0.01639   0.00376  -0.00001
 110        3PZ        -0.00001  -0.00001   0.00001   0.00000  -0.01990
 111 11  H  1S         -0.00235  -0.00111   0.00047  -0.03577   0.00000
 112        2S         -1.27517   1.43759  -0.60470  -1.51002   0.00000
 113        3PX        -0.00854   0.01141   0.00187   0.00217  -0.00001
 114        3PY         0.01639  -0.01427   0.00985  -0.00377   0.00001
 115        3PZ        -0.00001   0.00001  -0.00001   0.00000   0.01990
 116 12  H  1S         -0.00061   0.00096   0.00074   0.03577   0.00000
 117        2S         -0.33497  -1.24244  -0.94269   1.51009   0.00000
 118        3PX        -0.00486  -0.01561  -0.01184  -0.00435   0.00001
 119        3PY         0.00293   0.00429  -0.00565   0.00000  -0.00001
 120        3PZ         0.00000  -0.00001   0.00000   0.00000  -0.01990
                          31        32        33        34        35
                           V         V         V         V         V
     Eigenvalues --     0.43575   0.43577   0.46721   0.46722   0.58335
   1 1   C  1S         -0.07576   0.00000   0.00120  -0.03402   0.02373
   2        2S          0.06059   0.00000  -0.00150   0.04290   0.05832
   3        3S          2.69776  -0.00016  -0.07382   2.10069  -0.11081
   4        4PX         0.08048  -0.00593   0.16817   0.05577   0.00682
   5        4PY         0.13936   0.00342  -0.10113   0.08277   0.01176
   6        4PZ        -0.00006   0.00000   0.00012  -0.00004  -0.00001
   7        5PX         0.87144  -0.96822   1.96250   0.20556   0.02094
   8        5PY         1.50916   0.55903  -1.14429   0.19647   0.03580
   9        5PZ        -0.00070  -0.00065   0.00133  -0.00006  -0.00002
  10        6XX         0.03476   0.00904  -0.00729  -0.00117   0.02827
  11        6YY         0.01980  -0.00904   0.00570   0.04649   0.13362
  12        6ZZ        -0.01855   0.00000   0.00038  -0.01072  -0.04927
  13        6XY        -0.01496   0.00603  -0.00653   0.04699   0.10537
  14        6XZ         0.00003   0.00000   0.00000  -0.00003  -0.00004
  15        6YZ        -0.00003   0.00001  -0.00001  -0.00003  -0.00010
  16 2   C  1S          0.03788  -0.06561   0.03005  -0.01597   0.02375
  17        2S         -0.03032   0.05248  -0.03790   0.02014   0.05835
  18        3S         -1.34861   2.33679  -1.85603   0.98626  -0.11116
  19        4PX         0.04539  -0.06668   0.12370   0.12676  -0.00674
  20        4PY        -0.06673   0.12242  -0.03016   0.12713   0.01182
  21        4PZ         0.00006  -0.00010   0.00006  -0.00004  -0.00001
  22        5PX         1.27437  -0.27001   1.04448   1.67443  -0.02044
  23        5PY        -0.27058   1.58701   0.32449   1.11433   0.03572
  24        5PZ         0.00056  -0.00110   0.00011  -0.00021  -0.00003
  25        6XX        -0.00956   0.03462   0.00426   0.00603   0.02827
  26        6YY        -0.01772   0.01264  -0.04432   0.01525   0.13364
  27        6ZZ         0.00927  -0.01607   0.00948  -0.00504  -0.04927
  28        6XY        -0.01270   0.00994   0.03938  -0.02647  -0.10532
  29        6XZ         0.00000   0.00001  -0.00003   0.00002   0.00010
  30        6YZ         0.00002  -0.00002   0.00005  -0.00002  -0.00017
  31 3   C  1S          0.03788   0.06561   0.02886   0.01804   0.02375
  32        2S         -0.03032  -0.05248  -0.03639  -0.02274   0.05835
  33        3S         -1.34886  -2.33666  -1.78229  -1.11403  -0.11105
  34        4PX         0.08049   0.13936   0.08447   0.05277  -0.01361
  35        4PY        -0.00595   0.00345  -0.10399   0.16646  -0.00006
  36        4PZ         0.00003   0.00004   0.00009  -0.00009   0.00000
  37        5PX         0.87153   1.50937   0.23151   0.14464  -0.04123
  38        5PY        -0.96830   0.55962  -1.20504   1.92746   0.00028
  39        5PZ         0.00089   0.00010   0.00084  -0.00119  -0.00001
  40        6XX        -0.00616  -0.01067  -0.05926  -0.03703   0.18629
  41        6YY        -0.02113  -0.03658   0.02079   0.01301  -0.02438
  42        6ZZ         0.00928   0.01607   0.00910   0.00569  -0.04927
  43        6XY        -0.01044   0.00602  -0.00518   0.00828   0.00000
  44        6XZ         0.00000  -0.00001  -0.00002  -0.00002   0.00008
  45        6YZ         0.00002   0.00004  -0.00001   0.00000  -0.00002
  46 4   C  1S         -0.07576   0.00000  -0.00120   0.03402   0.02373
  47        2S          0.06059   0.00000   0.00150  -0.04290   0.05832
  48        3S          2.69776  -0.00016   0.07382  -2.10069  -0.11081
  49        4PX        -0.08048   0.00593   0.16817   0.05577  -0.00682
  50        4PY        -0.13936  -0.00342  -0.10113   0.08277  -0.01176
  51        4PZ         0.00006   0.00000   0.00012  -0.00004   0.00001
  52        5PX        -0.87144   0.96822   1.96250   0.20556  -0.02094
  53        5PY        -1.50916  -0.55903  -1.14429   0.19647  -0.03580
  54        5PZ         0.00070   0.00065   0.00133  -0.00006   0.00002
  55        6XX         0.03476   0.00904   0.00729   0.00117   0.02827
  56        6YY         0.01980  -0.00904  -0.00570  -0.04649   0.13362
  57        6ZZ        -0.01855   0.00000  -0.00038   0.01072  -0.04927
  58        6XY        -0.01496   0.00603   0.00653  -0.04699   0.10537
  59        6XZ         0.00003   0.00000   0.00000   0.00003  -0.00004
  60        6YZ        -0.00003   0.00001   0.00001   0.00003  -0.00010
  61 5   C  1S          0.03788  -0.06561  -0.03005   0.01597   0.02375
  62        2S         -0.03032   0.05248   0.03790  -0.02014   0.05835
  63        3S         -1.34861   2.33679   1.85603  -0.98626  -0.11116
  64        4PX        -0.04539   0.06668   0.12370   0.12676   0.00674
  65        4PY         0.06673  -0.12242  -0.03016   0.12713  -0.01182
  66        4PZ        -0.00006   0.00010   0.00006  -0.00004   0.00001
  67        5PX        -1.27437   0.27001   1.04448   1.67443   0.02044
  68        5PY         0.27058  -1.58701   0.32449   1.11433  -0.03572
  69        5PZ        -0.00056   0.00110   0.00011  -0.00020   0.00003
  70        6XX        -0.00956   0.03462  -0.00426  -0.00603   0.02827
  71        6YY        -0.01772   0.01264   0.04432  -0.01525   0.13364
  72        6ZZ         0.00927  -0.01607  -0.00948   0.00504  -0.04927
  73        6XY        -0.01270   0.00994  -0.03938   0.02647  -0.10532
  74        6XZ         0.00000   0.00001   0.00003  -0.00002   0.00010
  75        6YZ         0.00002  -0.00002  -0.00005   0.00002  -0.00017
  76 6   C  1S          0.03788   0.06561  -0.02886  -0.01804   0.02375
  77        2S         -0.03032  -0.05248   0.03639   0.02274   0.05835
  78        3S         -1.34886  -2.33666   1.78229   1.11403  -0.11105
  79        4PX        -0.08049  -0.13936   0.08447   0.05277   0.01361
  80        4PY         0.00595  -0.00345  -0.10399   0.16646   0.00006
  81        4PZ        -0.00003  -0.00004   0.00009  -0.00009   0.00000
  82        5PX        -0.87153  -1.50937   0.23151   0.14464   0.04123
  83        5PY         0.96830  -0.55962  -1.20504   1.92746  -0.00028
  84        5PZ        -0.00089  -0.00010   0.00084  -0.00119   0.00001
  85        6XX        -0.00616  -0.01067   0.05926   0.03703   0.18629
  86        6YY        -0.02113  -0.03658  -0.02079  -0.01301  -0.02438
  87        6ZZ         0.00928   0.01607  -0.00910  -0.00569  -0.04927
  88        6XY        -0.01044   0.00602   0.00518  -0.00828   0.00000
  89        6XZ         0.00000  -0.00001   0.00002   0.00002   0.00008
  90        6YZ         0.00002   0.00004   0.00001   0.00000  -0.00002
  91 7   H  1S          0.01569   0.00000  -0.00681   0.19414   0.36602
  92        2S          1.00491   0.00002  -0.00189   0.05338  -0.24777
  93        3PX        -0.00194  -0.01993   0.01062  -0.01707  -0.03910
  94        3PY        -0.00335   0.01151  -0.00472  -0.03038  -0.06771
  95        3PZ         0.00000  -0.00001   0.00001   0.00001   0.00003
[...]
 102        2S          0.09379   0.05453
 103        3PX         0.00000   0.00000   0.00261
 104        3PY         0.00000   0.00000   0.00000   0.00028
 105        3PZ         0.00000   0.00000   0.00000   0.00000   0.00040
 106 10  H  1S         -0.00015  -0.00203   0.00000  -0.00002   0.00000
 107        2S         -0.00203  -0.00384  -0.00005  -0.00012   0.00000
 108        3PX        -0.00001  -0.00003   0.00000   0.00000   0.00000
 109        3PY        -0.00001  -0.00013   0.00000   0.00000   0.00000
 110        3PZ         0.00000   0.00000   0.00000   0.00000   0.00000
 111 11  H  1S          0.00000  -0.00001   0.00000   0.00000   0.00000
 112        2S         -0.00001  -0.00015   0.00000   0.00000   0.00000
 113        3PX         0.00000   0.00000   0.00000   0.00000   0.00000
 114        3PY         0.00000   0.00000   0.00000   0.00000   0.00000
 115        3PZ         0.00000   0.00000   0.00000   0.00000   0.00000
 116 12  H  1S          0.00000   0.00000   0.00000   0.00000   0.00000
 117        2S          0.00000   0.00004   0.00000   0.00000   0.00000
 118        3PX         0.00000   0.00000   0.00000   0.00000   0.00000
 119        3PY         0.00000   0.00000   0.00000   0.00000   0.00000
 120        3PZ         0.00000   0.00000   0.00000   0.00000   0.00000
                         106       107       108       109       110
 106 10  H  1S          0.38398
 107        2S          0.09379   0.05454
 108        3PX         0.00000   0.00000   0.00086
 109        3PY         0.00000   0.00000   0.00000   0.00202
 110        3PZ         0.00000   0.00000   0.00000   0.00000   0.00040
 111 11  H  1S         -0.00015  -0.00203  -0.00002   0.00000   0.00000
 112        2S         -0.00203  -0.00384  -0.00016   0.00000   0.00000
 113        3PX        -0.00002  -0.00016   0.00000   0.00000   0.00000
 114        3PY         0.00000   0.00000   0.00000   0.00000   0.00000
 115        3PZ         0.00000   0.00000   0.00000   0.00000   0.00000
 116 12  H  1S          0.00000  -0.00001   0.00000   0.00000   0.00000
 117        2S         -0.00001  -0.00015   0.00000   0.00000   0.00000
 118        3PX         0.00000   0.00000   0.00000   0.00000   0.00000
 119        3PY         0.00000   0.00000   0.00000   0.00000   0.00000
 120        3PZ         0.00000   0.00000   0.00000   0.00000   0.00000
                         111       112       113       114       115
 111 11  H  1S          0.38397
 112        2S          0.09379   0.05453
 113        3PX         0.00000   0.00000   0.00086
 114        3PY         0.00000   0.00000   0.00000   0.00202
 115        3PZ         0.00000   0.00000   0.00000   0.00000   0.00040
 116 12  H  1S         -0.00015  -0.00203  -0.00001  -0.00001   0.00000
 117        2S         -0.00203  -0.00384  -0.00003  -0.00013   0.00000
 118        3PX         0.00000  -0.00005   0.00000   0.00000   0.00000
 119        3PY        -0.00002  -0.00012   0.00000   0.00000   0.00000
 120        3PZ         0.00000   0.00000   0.00000   0.00000   0.00000
                         116       117       118       119       120
 116 12  H  1S          0.38398
 117        2S          0.09379   0.05453
 118        3PX         0.00000   0.00000   0.00261
 119        3PY         0.00000   0.00000   0.00000   0.00028
 120        3PZ         0.00000   0.00000   0.00000   0.00000   0.00040
     Gross orbital populations:
                           1
   1 1   C  1S          1.99723
   2        2S          0.66717
   3        3S          0.42675
   4        4PX         0.74457
   5        4PY         0.72755
   6        4PZ         0.52673
   7        5PX         0.19670
   8        5PY         0.19930
   9        5PZ         0.44717
  10        6XX         0.03118
  11        6YY         0.02243
  12        6ZZ        -0.01191
  13        6XY         0.02967
  14        6XZ         0.01264
  15        6YZ         0.00783
  16 2   C  1S          1.99723
  17        2S          0.66716
  18        3S          0.42677
  19        4PX         0.74458
  20        4PY         0.72755
  21        4PZ         0.52672
  22        5PX         0.19669
  23        5PY         0.19927
  24        5PZ         0.44717
  25        6XX         0.03117
  26        6YY         0.02243
  27        6ZZ        -0.01191
  28        6XY         0.02966
  29        6XZ         0.01264
  30        6YZ         0.00783
  31 3   C  1S          1.99723
  32        2S          0.66716
  33        3S          0.42676
  34        4PX         0.71904
  35        4PY         0.75310
  36        4PZ         0.52672
  37        5PX         0.20057
  38        5PY         0.19538
  39        5PZ         0.44716
  40        6XX         0.02113
  41        6YY         0.03861
  42        6ZZ        -0.01191
  43        6XY         0.02353
  44        6XZ         0.00542
  45        6YZ         0.01504
  46 4   C  1S          1.99723
  47        2S          0.66717
  48        3S          0.42675
  49        4PX         0.74457
  50        4PY         0.72755
  51        4PZ         0.52673
  52        5PX         0.19670
  53        5PY         0.19930
  54        5PZ         0.44717
  55        6XX         0.03118
  56        6YY         0.02243
  57        6ZZ        -0.01191
  58        6XY         0.02967
  59        6XZ         0.01264
  60        6YZ         0.00783
  61 5   C  1S          1.99723
  62        2S          0.66716
  63        3S          0.42677
  64        4PX         0.74458
  65        4PY         0.72755
  66        4PZ         0.52672
  67        5PX         0.19669
  68        5PY         0.19927
  69        5PZ         0.44717
  70        6XX         0.03117
  71        6YY         0.02243
  72        6ZZ        -0.01191
  73        6XY         0.02966
  74        6XZ         0.01264
  75        6YZ         0.00783
  76 6   C  1S          1.99723
  77        2S          0.66716
  78        3S          0.42676
  79        4PX         0.71904
  80        4PY         0.75310
  81        4PZ         0.52672
  82        5PX         0.20057
  83        5PY         0.19538
  84        5PZ         0.44716
  85        6XX         0.02113
  86        6YY         0.03861
  87        6ZZ        -0.01191
  88        6XY         0.02353
  89        6XZ         0.00542
  90        6YZ         0.01504
  91 7   H  1S          0.75951
  92        2S          0.18391
  93        3PX         0.00834
  94        3PY         0.01763
  95        3PZ         0.00565
  96 8   H  1S          0.75950
  97        2S          0.18391
  98        3PX         0.00834
  99        3PY         0.01763
 100        3PZ         0.00565
 101 9   H  1S          0.75951
 102        2S          0.18391
 103        3PX         0.02227
 104        3PY         0.00370
 105        3PZ         0.00565
 106 10  H  1S          0.75951
 107        2S          0.18391
 108        3PX         0.00834
 109        3PY         0.01763
 110        3PZ         0.00565
 111 11  H  1S          0.75950
 112        2S          0.18391
 113        3PX         0.00834
 114        3PY         0.01763
 115        3PZ         0.00565
 116 12  H  1S          0.75951
 117        2S          0.18391
 118        3PX         0.02227
 119        3PY         0.00370
 120        3PZ         0.00565
          Condensed to atoms (all electrons):
               1          2          3          4          5          6
     1  C    4.699781   0.549217  -0.050541  -0.034985  -0.050539   0.549226
     2  C    0.549217   4.699770   0.549183  -0.050539  -0.034968  -0.050524
     3  C   -0.050541   0.549183   4.699759   0.549227  -0.050524  -0.034968
     4  C   -0.034985  -0.050539   0.549227   4.699781   0.549217  -0.050541
     5  C   -0.050539  -0.034968  -0.050524   0.549217   4.699770   0.549183
     6  C    0.549226  -0.050524  -0.034968  -0.050541   0.549183   4.699759
     7  H    0.423315  -0.036026   0.006007  -0.000464   0.006007  -0.036023
     8  H   -0.036016   0.423322  -0.036027   0.006005  -0.000464   0.006005
     9  H    0.006005  -0.036029   0.423322  -0.036015   0.006006  -0.000464
    10  H   -0.000464   0.006007  -0.036023   0.423315  -0.036026   0.006007
    11  H    0.006005  -0.000464   0.006005  -0.036016   0.423322  -0.036027
    12  H   -0.036015   0.006006  -0.000464   0.006005  -0.036029   0.423322
               7          8          9         10         11         12
     1  C    0.423315  -0.036016   0.006005  -0.000464   0.006005  -0.036015
     2  C   -0.036026   0.423322  -0.036029   0.006007  -0.000464   0.006006
     3  C    0.006007  -0.036027   0.423322  -0.036023   0.006005  -0.000464
     4  C   -0.000464   0.006005  -0.036015   0.423315  -0.036016   0.006005
     5  C    0.006007  -0.000464   0.006006  -0.036026   0.423322  -0.036029
     6  C   -0.036023   0.006005  -0.000464   0.006007  -0.036027   0.423322
     7  H    0.629386  -0.008425  -0.000174   0.000038  -0.000174  -0.008427
     8  H   -0.008425   0.629360  -0.008421  -0.000174   0.000038  -0.000174
     9  H   -0.000174  -0.008421   0.629366  -0.008427  -0.000174   0.000038
    10  H    0.000038  -0.000174  -0.008427   0.629386  -0.008425  -0.000174
    11  H   -0.000174   0.000038  -0.000174  -0.008425   0.629360  -0.008421
    12  H   -0.008427  -0.000174   0.000038  -0.000174  -0.008421   0.629366
 Mulliken charges:
               1
     1  C   -0.024990
     2  C   -0.024955
     3  C   -0.024955
     4  C   -0.024990
     5  C   -0.024955
     6  C   -0.024955
     7  H    0.024961
     8  H    0.024971
     9  H    0.024968
    10  H    0.024961
    11  H    0.024971
    12  H    0.024968
 Sum of Mulliken charges =   0.00000
 Mulliken charges with hydrogens summed into heavy atoms:
               1
     1  C   -0.000029
     2  C    0.000016
     3  C    0.000013
     4  C   -0.000029
     5  C    0.000016
     6  C    0.000013
 Electronic spatial extent (au):  <R**2>=            656.3543
 Charge=              0.0000 electrons
 Dipole moment (field-independent basis, Debye):
    X=              0.0000    Y=              0.0000    Z=              0.0000  Tot=              0.0000
 Quadrupole moment (field-independent basis, Debye-Ang):
   XX=            -31.7386   YY=            -31.7392   ZZ=            -40.4594
   XY=             -0.0004   XZ=              0.0027   YZ=             -0.0056
 Traceless Quadrupole moment (field-independent basis, Debye-Ang):
   XX=              2.9071   YY=              2.9065   ZZ=             -5.8136
   XY=             -0.0004   XZ=              0.0027   YZ=             -0.0056
 Octapole moment (field-independent basis, Debye-Ang**2):
  XXX=            -46.8819  YYY=            -97.9768  ZZZ=              0.0598  XYY=            -15.6285
  XXY=            -32.6588  XXZ=              0.0183  XZZ=            -19.9212  YZZ=            -41.6317
  YYZ=              0.0041  XYZ=              0.0000
 Hexadecapole moment (field-independent basis, Debye-Ang**3):
 XXXX=           -317.3573 YYYY=           -472.8140 ZZZZ=            -46.4544 XXXY=            -48.2333
 XXXZ=              0.0004 YYYX=            -48.2426 YYYZ=              0.0823 ZZZX=             -0.0145
 ZZZY=              0.1540 XXYY=           -131.6973 XXZZ=            -73.2974 YYZZ=           -106.3246
 XXYZ=              0.0347 YYXZ=             -0.0034 ZZXY=            -20.4965
 N-N= 2.029242874433D+02 E-N=-9.423701330240D+02  KE= 2.301250421671D+02
 Orbital energies and kinetic energies (alpha):
                                 1                 2
   1         O               -11.242505         15.996183
   2         O               -11.241953         16.002321
   3         O               -11.241949         16.002322
   4         O               -11.240757         16.017123
   5         O               -11.240754         16.017123
   6         O               -11.240172         16.026063
   7         O                -1.145652          1.437912
   8         O                -1.011184          1.554054
   9         O                -1.011165          1.554033
  10         O                -0.820182          1.426949
  11         O                -0.820168          1.426962
  12         O                -0.703314          0.911656
  13         O                -0.640653          1.253654
  14         O                -0.613605          1.443085
  15         O                -0.583258          1.168851
  16         O                -0.583223          1.168907
  17         O                -0.497267          0.874956
  18         O                -0.490333          1.360773
  19         O                -0.490315          1.360779
  20         O                -0.332845          1.029402
  21         O                -0.332831          1.029413
  22         V                 0.136306          1.144458
  23         V                 0.136314          1.144473
  24         V                 0.181526          0.621701
  25         V                 0.219586          0.578792
  26         V                 0.219587          0.578794
  27         V                 0.255072          0.675850
  28         V                 0.255084          0.675882
  29         V                 0.271243          0.635064
  30         V                 0.348797          1.316830
  31         V                 0.435755          1.186267
  32         V                 0.435771          1.186225
  33         V                 0.467206          1.214665
  34         V                 0.467220          1.214750
  35         V                 0.583355          1.340032
  36         V                 0.585832          1.294344
  37         V                 0.661512          1.260969
  38         V                 0.668623          2.393100
  39         V                 0.681001          1.843357
  40         V                 0.713104          1.750254
  41         V                 0.713109          1.750254
  42         V                 0.732568          1.828702
  43         V                 0.732573          1.828723
  44         V                 0.733617          2.251605
  45         V                 0.733630          2.251574
  46         V                 0.740592          1.351076
  47         V                 0.822683          2.115781
  48         V                 0.822689          2.115796
  49         V                 0.843560          1.771145
  50         V                 0.843570          1.771119
  51         V                 0.883335          2.276475
  52         V                 0.883348          2.276504
  53         V                 0.909073          2.346279
  54         V                 0.975758          2.606240
  55         V                 0.982044          1.950065
  56         V                 1.049678          1.651504
  57         V                 1.079996          2.146930
  58         V                 1.080014          2.147003
  59         V                 1.121716          2.873970
  60         V                 1.150574          1.795343
  61         V                 1.184938          1.787170
  62         V                 1.184945          1.787117
  63         V                 1.240556          1.993522
  64         V                 1.240562          1.993537
  65         V                 1.243398          1.845530
  66         V                 1.243441          1.845548
  67         V                 1.289418          2.396126
  68         V                 1.316971          1.958802
  69         V                 1.316987          1.958800
  70         V                 1.468089          2.132938
  71         V                 1.512575          2.157866
  72         V                 1.512624          2.157928
  73         V                 1.718170          2.467048
  74         V                 1.740512          2.340072
  75         V                 1.740529          2.340105
  76         V                 1.764477          2.197995
  77         V                 1.787283          2.478936
  78         V                 1.856160          2.600130
  79         V                 1.856198          2.600412
  80         V                 1.882832          2.694913
  81         V                 1.882901          2.694924
  82         V                 1.898147          2.328571
  83         V                 1.930234          2.783937
  84         V                 1.950697          2.385634
  85         V                 1.950721          2.385674
  86         V                 1.953777          2.536077
  87         V                 1.953859          2.536116
  88         V                 2.086310          2.825495
  89         V                 2.086359          2.825584
  90         V                 2.117613          2.604199
  91         V                 2.143268          3.599306
  92         V                 2.143321          3.599438
  93         V                 2.151004          3.461166
  94         V                 2.151023          3.461031
  95         V                 2.165976          3.115899
  96         V                 2.262038          2.747256
  97         V                 2.262064          2.747296
  98         V                 2.273737          3.069487
  99         V                 2.273753          3.069381
 100         V                 2.322592          3.562705
 101         V                 2.493791          3.108213
 102         V                 2.555524          3.132867
 103         V                 2.649986          4.287437
 104         V                 2.729356          4.295114
 105         V                 2.729374          4.295300
 106         V                 2.757738          5.048359
 107         V                 2.757744          5.048370
 108         V                 2.818463          4.228555
 109         V                 2.818526          4.228116
 110         V                 2.869967          6.465454
 111         V                 2.997993          4.223775
 112         V                 3.104788          6.058239
 113         V                 3.104818          6.057708
 114         V                 3.124415          4.418373
 115         V                 3.169433          5.480196
 116         V                 3.169466          5.480676
 117         V                 3.628208          6.921649
 118         V                 3.628229          6.921212
 119         V                 3.825758          6.332505
 120         V                 4.497440          8.288069
 Total kinetic energy from orbitals= 2.301250421671D+02
 Unable to Open any file for archive entry.
 1\1\GINC-MEDUSA\SP\RHF\CC-pVDZ\C6H6\PLESTRAN\26-Oct-2015\0\\# hf/cc-pV
 DZ gfinput pop=full nosymm 6D\\Benzene cc-pVDZ\\0,1\C,0,-0.2069851582,
 -0.182179772,0.0000714421\C,0,1.1916738876,-0.1823529436,0.0004985861\
 C,0,1.8910553573,1.0288676731,-0.0000660445\C,0,1.1917349868,2.2401336
 715,-0.0010564977\C,0,-0.206924055,2.2403068493,-0.0014838269\C,0,-0.9
 063055337,1.0290862369,-0.0009191682\H,0,-0.750746176,-1.1238955859,0.
 0005098114\H,0,1.7352854346,-1.124149144,0.0012705069\H,0,2.9784784245
 ,1.0289339946,0.0002669247\H,0,1.7354959994,3.1818494841,-0.0014954845
 \H,0,-0.7505356043,3.1821030485,-0.0022553738\H,0,-1.9937286031,1.0290
 199075,-0.0012518757\\Version=ES64L-GDVRevI.03+\HF=-230.7223421\EFC=0.
 \RMSD=4.587e-09\Dipole=0.,0.,0.\Quadrupole=2.1613503,2.160928,-4.32227
 82,-0.0003202,0.0019835,-0.0041655\PG=CI [X(C6H6)]\\@
 The archive entry for this job was punched.


 THE RARE EARTHS PERPLEX US IN OUR RESEARCHES,
 BAFFLE US IN OUR SPECULATIONS, AND HAUNT US IN OUR
 VERY DREAMS.  THEY STRETCH LIKE AN UNKNOWN BEFORE US,
 MOCKING, MYSTIFYING, AND MURMURING STRANGE REVELATIONS
 AND POSSIBILITIES.  -- SIR WILLIAM CROOKE, 1832-1919
 Job cpu time:       0 days  0 hours  0 minutes  3.4 seconds.
 Elapsed time:       0 days  0 hours  0 minutes  3.3 seconds.
 File lengths (MBytes):  RWF=     10 Int=      0 D2E=      0 Chk=      2 Scr=      1
 Normal termination of Gaussian DV at Mon Oct 26 18:16:51 2015.
