 Entering Gaussian System, Link 0=gdv
 Input=benzene_cc-pVDZ_TD.com
 Output=benzene_cc-pVDZ_TD.log
 Initial command:
 /home/gauss/gdvi01p/gdv/l1.exe "/home/GauScr/Gau-22183.inp" -scrdir="/home/GauScr/"
 Entering Link 1 = /home/gauss/gdvi01p/gdv/l1.exe PID=     22184.
  
 Copyright (c) 1988,1990,1992,1993,1995,1998,2003,2009,2014,
            Gaussian, Inc.  All Rights Reserved.
  
 This is the private, development version of
 the Gaussian(R) DV system of programs. It is based on
 the Gaussian(R) 09 system (copyright 2009, Gaussian, Inc.),
 the Gaussian(R) 03 system (copyright 2003, Gaussian, Inc.),
 the Gaussian(R) 98 system (copyright 1998, Gaussian, Inc.),
 the Gaussian(R) 94 system (copyright 1995, Gaussian, Inc.),
 the Gaussian 92(TM) system (copyright 1992, Gaussian, Inc.),
 the Gaussian 90(TM) system (copyright 1990, Gaussian, Inc.),
 the Gaussian 88(TM) system (copyright 1988, Gaussian, Inc.),
 the Gaussian 86(TM) system (copyright 1986, Carnegie Mellon
 University), and the Gaussian 82(TM) system (copyright 1983,
 Carnegie Mellon University). Gaussian is a federally registered
 trademark of Gaussian, Inc.
  
 This software contains proprietary and confidential information,
 including trade secrets, belonging to Gaussian, Inc.
  
 This software is provided under written license and may be
 used, copied, transmitted, or stored only in accord with that
 written license.
  
 The following legend is applicable only to US Government
 contracts under FAR:
  
                    RESTRICTED RIGHTS LEGEND
  
 Use, reproduction and disclosure by the US Government is
 subject to restrictions as set forth in subparagraphs (a)
 and (c) of the Commercial Computer Software - Restricted
 Rights clause in FAR 52.227-19.
  
 Gaussian, Inc.
 340 Quinnipiac St., Bldg. 40, Wallingford CT 06492
  
  
 ---------------------------------------------------------------
 Warning -- This program may not be used in any manner that
 competes with the business of Gaussian, Inc. or will provide
 assistance to any competitor of Gaussian, Inc.  The licensee
 of this program is prohibited from giving any competitor of
 Gaussian, Inc. access to this program.  By using this program,
 the user acknowledges that Gaussian, Inc. is engaged in the
 business of creating and licensing software in the field of
 computational chemistry and represents and warrants to the
 licensee that it is not a competitor of Gaussian, Inc. and that
 it will not use this program in any manner prohibited above.
 ---------------------------------------------------------------
  

 Cite this work as:
 Gaussian Development Version, Revision I.01+,
 M. J. Frisch, G. W. Trucks, H. B. Schlegel, G. E. Scuseria, 
 M. A. Robb, J. R. Cheeseman, G. Scalmani, V. Barone, B. Mennucci, 
 G. A. Petersson, H. Nakatsuji, M. Caricato, X. Li, H. P. Hratchian, 
 A. F. Izmaylov, J. Bloino, B. G. Janesko, F. Lipparini, G. Zheng, 
 J. L. Sonnenberg, W. Liang, M. Hada, M. Ehara, K. Toyota, R. Fukuda, 
 J. Hasegawa, M. Ishida, T. Nakajima, Y. Honda, O. Kitao, H. Nakai, 
 T. Vreven, J. A. Montgomery, Jr., J. E. Peralta, F. Ogliaro, 
 M. Bearpark, J. J. Heyd, E. Brothers, K. N. Kudin, V. N. Staroverov, 
 T. Keith, R. Kobayashi, J. Normand, K. Raghavachari, A. Rendell, 
 J. C. Burant, S. S. Iyengar, J. Tomasi, M. Cossi, N. Rega, 
 J. M. Millam, M. Klene, J. E. Knox, J. B. Cross, V. Bakken, 
 C. Adamo, J. Jaramillo, R. Gomperts, R. E. Stratmann, O. Yazyev, 
 A. J. Austin, R. Cammi, C. Pomelli, J. W. Ochterski, R. L. Martin, 
 K. Morokuma, V. G. Zakrzewski, G. A. Voth, P. Salvador, 
 J. J. Dannenberg, S. Dapprich, P. V. Parandekar, N. J. Mayhall, 
 A. D. Daniels, O. Farkas, J. B. Foresman, J. V. Ortiz, 
 J. Cioslowski, and D. J. Fox, Gaussian, Inc., Wallingford CT, 2010.
 
 *******************************************
 Gaussian DV:  ES64L-GDVRevI.01+ 11-Sep-2014
                 22-Sep-2015 
 *******************************************
 --------------------------------------------------------------
 # hf/cc-pVDZ gfinput pop=full nosymm td(full,nstates=12,50-50)
 --------------------------------------------------------------
 1/38=1,172=1/1;
 2/12=2,15=1,17=6,18=5,40=1/2;
 3/5=16,11=9,24=10,25=1,30=1/1,2,8,3;
 4//1;
 5/5=2,38=5/2;
 8/6=1,10=90,108=12/1,4;
 9/41=12,42=3,48=2,70=2/14;
 6/7=3/1;
 99/5=1,9=1/99;
 ---------------
 Benzene cc-pVDZ
 ---------------
 Symbolic Z-matrix:
 Charge =  0 Multiplicity = 1
 C                    -0.64864   0.24131  -0.00045 
 C                     0.74652   0.24131  -0.00045 
 C                     1.44406   1.44906  -0.00045 
 C                     0.74641   2.65757  -0.00165 
 C                    -0.64842   2.65749  -0.00213 
 C                    -1.34602   1.44928  -0.00113 
 H                    -1.19839  -0.71101   0. 
 H                     1.29603  -0.71121   0.00087 
 H                     2.54374   1.44914   0.00018 
 H                     1.29661   3.60971  -0.00171 
 H                    -1.19854   3.60977  -0.00308 
 H                    -2.44562   1.44947  -0.00131 
 
                          Input orientation:                          
 ---------------------------------------------------------------------
 Center     Atomic      Atomic             Coordinates (Angstroms)
 Number     Number       Type             X           Y           Z
 ---------------------------------------------------------------------
      1          6           0       -0.648635    0.241308   -0.000450
      2          6           0        0.746525    0.241308   -0.000450
      3          6           0        1.444063    1.449059   -0.000450
      4          6           0        0.746409    2.657568   -0.001649
      5          6           0       -0.648416    2.657490   -0.002128
      6          6           0       -1.346017    1.449284   -0.001132
      7          1           0       -1.198394   -0.711009    0.000000
      8          1           0        1.296033   -0.711205    0.000865
      9          1           0        2.543743    1.449139    0.000184
     10          1           0        1.296609    3.609711   -0.001708
     11          1           0       -1.198538    3.609771   -0.003081
     12          1           0       -2.445621    1.449467   -0.001312
 ---------------------------------------------------------------------
                    Distance matrix (angstroms):
                    1          2          3          4          5
     1  C    0.000000
     2  C    1.395160   0.000000
     3  C    2.416205   1.394712   0.000000
     4  C    2.790065   2.416260   1.395427   0.000000
     5  C    2.416183   2.789946   2.416356   1.394825   0.000000
     6  C    1.394829   2.416183   2.790080   2.416236   1.395138
     7  H    1.099610   2.165553   3.412986   3.889675   3.413102
     8  H    2.165414   1.099655   2.165330   3.413316   3.889601
     9  H    3.413229   2.165375   1.099680   2.165806   3.413209
    10  H    3.889745   3.413024   2.165678   1.099680   2.165606
    11  H    3.413055   3.889707   3.413506   2.165528   1.099761
    12  H    2.165365   3.413128   3.889684   3.412999   2.165471
                    6          7          8          9         10
     6  C    0.000000
     7  H    2.165331   0.000000
     8  H    3.412938   2.494427   0.000000
     9  H    3.889760   4.320860   2.494768   0.000000
    10  H    3.413344   4.989355   4.320917   2.494678   0.000000
    11  H    2.165516   4.320781   4.989362   4.321228   2.495147
    12  H    1.099604   2.494641   4.320704   4.989364   4.320988
                   11         12
    11  H    0.000000
    12  H    2.494420   0.000000
 Symmetry turned off by external request.
 Stoichiometry    C6H6
 Framework group  C1[X(C6H6)]
 Deg. of freedom    30
 Full point group                 C1      NOp   1
 Rotational constants (GHZ):      5.6865650      5.6862640      2.8432074
 Standard basis: CC-pVDZ (5D, 7F)
 AO basis set in the form of general basis input (Overlap normalization):
      1 0
 S   7 1.00       0.000000000000
      0.6665000000D+04  0.6935163173D-03
      0.1000000000D+04  0.5341502433D-02
      0.2280000000D+03  0.2713667141D-01
      0.6471000000D+02  0.1019923853D+00
      0.2106000000D+02  0.2755086365D+00
      0.7495000000D+01  0.4510864331D+00
      0.2797000000D+01  0.2875657448D+00
 S   7 1.00       0.000000000000
      0.6665000000D+04  0.7733547404D-05
      0.2280000000D+03  0.2780721367D-03
      0.6471000000D+02 -0.2578756542D-02
      0.2106000000D+02 -0.8950876838D-02
      0.7495000000D+01 -0.1060588547D+00
      0.2797000000D+01 -0.1315176856D+00
      0.5215000000D+00  0.1099486598D+01
 S   1 1.00       0.000000000000
      0.1596000000D+00  0.1000000000D+01
 P   3 1.00       0.000000000000
      0.9439000000D+01  0.5697925159D-01
      0.2002000000D+01  0.3132072115D+00
      0.5456000000D+00  0.7603767417D+00
 P   1 1.00       0.000000000000
      0.1517000000D+00  0.1000000000D+01
 D   1 1.00       0.000000000000
      0.5500000000D+00  0.1000000000D+01
 ****
      2 0
 S   7 1.00       0.000000000000
      0.6665000000D+04  0.6935163173D-03
      0.1000000000D+04  0.5341502433D-02
      0.2280000000D+03  0.2713667141D-01
      0.6471000000D+02  0.1019923853D+00
      0.2106000000D+02  0.2755086365D+00
      0.7495000000D+01  0.4510864331D+00
      0.2797000000D+01  0.2875657448D+00
 S   7 1.00       0.000000000000
      0.6665000000D+04  0.7733547404D-05
      0.2280000000D+03  0.2780721367D-03
      0.6471000000D+02 -0.2578756542D-02
      0.2106000000D+02 -0.8950876838D-02
      0.7495000000D+01 -0.1060588547D+00
      0.2797000000D+01 -0.1315176856D+00
      0.5215000000D+00  0.1099486598D+01
 S   1 1.00       0.000000000000
      0.1596000000D+00  0.1000000000D+01
 P   3 1.00       0.000000000000
      0.9439000000D+01  0.5697925159D-01
      0.2002000000D+01  0.3132072115D+00
      0.5456000000D+00  0.7603767417D+00
 P   1 1.00       0.000000000000
      0.1517000000D+00  0.1000000000D+01
 D   1 1.00       0.000000000000
      0.5500000000D+00  0.1000000000D+01
 ****
      3 0
 S   7 1.00       0.000000000000
      0.6665000000D+04  0.6935163173D-03
      0.1000000000D+04  0.5341502433D-02
      0.2280000000D+03  0.2713667141D-01
      0.6471000000D+02  0.1019923853D+00
      0.2106000000D+02  0.2755086365D+00
      0.7495000000D+01  0.4510864331D+00
      0.2797000000D+01  0.2875657448D+00
 S   7 1.00       0.000000000000
      0.6665000000D+04  0.7733547404D-05
      0.2280000000D+03  0.2780721367D-03
      0.6471000000D+02 -0.2578756542D-02
      0.2106000000D+02 -0.8950876838D-02
      0.7495000000D+01 -0.1060588547D+00
      0.2797000000D+01 -0.1315176856D+00
      0.5215000000D+00  0.1099486598D+01
 S   1 1.00       0.000000000000
      0.1596000000D+00  0.1000000000D+01
 P   3 1.00       0.000000000000
      0.9439000000D+01  0.5697925159D-01
      0.2002000000D+01  0.3132072115D+00
      0.5456000000D+00  0.7603767417D+00
 P   1 1.00       0.000000000000
      0.1517000000D+00  0.1000000000D+01
 D   1 1.00       0.000000000000
      0.5500000000D+00  0.1000000000D+01
 ****
      4 0
 S   7 1.00       0.000000000000
      0.6665000000D+04  0.6935163173D-03
      0.1000000000D+04  0.5341502433D-02
      0.2280000000D+03  0.2713667141D-01
      0.6471000000D+02  0.1019923853D+00
      0.2106000000D+02  0.2755086365D+00
      0.7495000000D+01  0.4510864331D+00
      0.2797000000D+01  0.2875657448D+00
 S   7 1.00       0.000000000000
      0.6665000000D+04  0.7733547404D-05
      0.2280000000D+03  0.2780721367D-03
      0.6471000000D+02 -0.2578756542D-02
      0.2106000000D+02 -0.8950876838D-02
      0.7495000000D+01 -0.1060588547D+00
      0.2797000000D+01 -0.1315176856D+00
      0.5215000000D+00  0.1099486598D+01
 S   1 1.00       0.000000000000
      0.1596000000D+00  0.1000000000D+01
 P   3 1.00       0.000000000000
      0.9439000000D+01  0.5697925159D-01
      0.2002000000D+01  0.3132072115D+00
      0.5456000000D+00  0.7603767417D+00
 P   1 1.00       0.000000000000
      0.1517000000D+00  0.1000000000D+01
 D   1 1.00       0.000000000000
      0.5500000000D+00  0.1000000000D+01
 ****
      5 0
 S   7 1.00       0.000000000000
      0.6665000000D+04  0.6935163173D-03
      0.1000000000D+04  0.5341502433D-02
      0.2280000000D+03  0.2713667141D-01
      0.6471000000D+02  0.1019923853D+00
      0.2106000000D+02  0.2755086365D+00
      0.7495000000D+01  0.4510864331D+00
      0.2797000000D+01  0.2875657448D+00
 S   7 1.00       0.000000000000
      0.6665000000D+04  0.7733547404D-05
      0.2280000000D+03  0.2780721367D-03
      0.6471000000D+02 -0.2578756542D-02
      0.2106000000D+02 -0.8950876838D-02
      0.7495000000D+01 -0.1060588547D+00
      0.2797000000D+01 -0.1315176856D+00
      0.5215000000D+00  0.1099486598D+01
 S   1 1.00       0.000000000000
      0.1596000000D+00  0.1000000000D+01
 P   3 1.00       0.000000000000
      0.9439000000D+01  0.5697925159D-01
      0.2002000000D+01  0.3132072115D+00
      0.5456000000D+00  0.7603767417D+00
 P   1 1.00       0.000000000000
      0.1517000000D+00  0.1000000000D+01
 D   1 1.00       0.000000000000
      0.5500000000D+00  0.1000000000D+01
 ****
      6 0
 S   7 1.00       0.000000000000
      0.6665000000D+04  0.6935163173D-03
      0.1000000000D+04  0.5341502433D-02
      0.2280000000D+03  0.2713667141D-01
      0.6471000000D+02  0.1019923853D+00
      0.2106000000D+02  0.2755086365D+00
      0.7495000000D+01  0.4510864331D+00
      0.2797000000D+01  0.2875657448D+00
 S   7 1.00       0.000000000000
      0.6665000000D+04  0.7733547404D-05
      0.2280000000D+03  0.2780721367D-03
      0.6471000000D+02 -0.2578756542D-02
      0.2106000000D+02 -0.8950876838D-02
      0.7495000000D+01 -0.1060588547D+00
      0.2797000000D+01 -0.1315176856D+00
      0.5215000000D+00  0.1099486598D+01
 S   1 1.00       0.000000000000
      0.1596000000D+00  0.1000000000D+01
 P   3 1.00       0.000000000000
      0.9439000000D+01  0.5697925159D-01
      0.2002000000D+01  0.3132072115D+00
      0.5456000000D+00  0.7603767417D+00
 P   1 1.00       0.000000000000
      0.1517000000D+00  0.1000000000D+01
 D   1 1.00       0.000000000000
      0.5500000000D+00  0.1000000000D+01
 ****
      7 0
 S   3 1.00       0.000000000000
      0.1301000000D+02  0.3349872639D-01
      0.1962000000D+01  0.2348008012D+00
      0.4446000000D+00  0.8136829579D+00
 S   1 1.00       0.000000000000
      0.1220000000D+00  0.1000000000D+01
 P   1 1.00       0.000000000000
      0.7270000000D+00  0.1000000000D+01
 ****
      8 0
 S   3 1.00       0.000000000000
      0.1301000000D+02  0.3349872639D-01
      0.1962000000D+01  0.2348008012D+00
      0.4446000000D+00  0.8136829579D+00
 S   1 1.00       0.000000000000
      0.1220000000D+00  0.1000000000D+01
 P   1 1.00       0.000000000000
      0.7270000000D+00  0.1000000000D+01
 ****
      9 0
 S   3 1.00       0.000000000000
      0.1301000000D+02  0.3349872639D-01
      0.1962000000D+01  0.2348008012D+00
      0.4446000000D+00  0.8136829579D+00
 S   1 1.00       0.000000000000
      0.1220000000D+00  0.1000000000D+01
 P   1 1.00       0.000000000000
      0.7270000000D+00  0.1000000000D+01
 ****
     10 0
 S   3 1.00       0.000000000000
      0.1301000000D+02  0.3349872639D-01
      0.1962000000D+01  0.2348008012D+00
      0.4446000000D+00  0.8136829579D+00
 S   1 1.00       0.000000000000
      0.1220000000D+00  0.1000000000D+01
 P   1 1.00       0.000000000000
      0.7270000000D+00  0.1000000000D+01
 ****
     11 0
 S   3 1.00       0.000000000000
      0.1301000000D+02  0.3349872639D-01
      0.1962000000D+01  0.2348008012D+00
      0.4446000000D+00  0.8136829579D+00
 S   1 1.00       0.000000000000
      0.1220000000D+00  0.1000000000D+01
 P   1 1.00       0.000000000000
      0.7270000000D+00  0.1000000000D+01
 ****
     12 0
 S   3 1.00       0.000000000000
      0.1301000000D+02  0.3349872639D-01
      0.1962000000D+01  0.2348008012D+00
      0.4446000000D+00  0.8136829579D+00
 S   1 1.00       0.000000000000
      0.1220000000D+00  0.1000000000D+01
 P   1 1.00       0.000000000000
      0.7270000000D+00  0.1000000000D+01
 ****

   114 basis functions,   240 primitive gaussians,   120 cartesian basis functions
    21 alpha electrons       21 beta electrons
       nuclear repulsion energy       203.0307491037 Hartrees.
 NAtoms=   12 NActive=   12 NUniq=   12 SFac= 1.00D+00 NAtFMM=   60 NAOKFM=F Big=F
 Integral buffers will be    131072 words long.
 Raffenetti 1 integral format.
 Two-electron integral symmetry is turned off.
 One-electron integrals computed using PRISM.
 NBasis=   114 RedAO= T EigKep=  3.65D-04  NBF=   114
 NBsUse=   114 1.00D-06 EigRej= -1.00D+00 NBFU=   114
 ExpMin= 1.22D-01 ExpMax= 6.67D+03 ExpMxC= 2.28D+02 IAcc=1 IRadAn=         1 AccDes= 0.00D+00
 Harris functional with IExCor=  205 and IRadAn=       1 diagonalized for initial guess.
 HarFok:  IExCor=  205 AccDes= 0.00D+00 IRadAn=         1 IDoV= 1 UseB2=F ITyADJ=14
 ICtDFT=  3500011 ScaDFX=  1.000000  1.000000  1.000000  1.000000
 FoFCou: FMM=F IPFlag=           0 FMFlag=      100000 FMFlg1=           0
         NFxFlg=           0 DoJE=T BraDBF=F KetDBF=T FulRan=T
         wScrn=  0.000000 ICntrl=       500 IOpCl=  0 I1Cent=   200000004 NGrid=           0
         NMat0=    1 NMatS0=      1 NMatT0=    0 NMatD0=    1 NMtDS0=    0 NMtDT0=    0
 Symmetry not used in FoFCou.
 Keep R1 ints in memory in canonical form, NReq=22441572.
 Requested convergence on RMS density matrix=1.00D-08 within 128 cycles.
 Requested convergence on MAX density matrix=1.00D-06.
 Requested convergence on             energy=1.00D-06.
 No special actions if energy rises.
 SCF Done:  E(RHF) =  -230.720825199     A.U. after   10 cycles
            NFock= 10  Conv=0.91D-08     -V/T= 2.0017
 Range of M.O.s used for correlation:     1   114
 NBasis=   114 NAE=    21 NBE=    21 NFC=     0 NFV=     0
 NROrb=    114 NOA=    21 NOB=    21 NVA=    93 NVB=    93

 **** Warning!!: The largest alpha MO coefficient is  0.12555808D+02

 Semi-Direct transformation.
 ModeAB=           2 MOrb=            21 LenV=      33038193
 LASXX=      5144874 LTotXX=     5144874 LenRXX=     5144874
 LTotAB=     5328414 MaxLAS=    17380440 LenRXY=    17380440
 NonZer=    17595900 LenScr=    27166720 LnRSAI=           0
 LnScr1=           0 LExtra=           0 Total=     49692034
 MaxDsk=          -1 SrtSym=           F ITran=            3
 JobTyp=0 Pass  1:  I=   1 to  21.
 (rs|ai) integrals will be sorted in core.
 Spin components of T(2) and E(2):
     alpha-alpha T2 =       0.4167248619D-01 E2=     -0.1051837731D+00
     alpha-beta  T2 =       0.2183990485D+00 E2=     -0.5896689889D+00
     beta-beta   T2 =       0.4167248619D-01 E2=     -0.1051837731D+00
 ANorm=    0.1140939973D+01
 E2 =    -0.8000365351D+00 EUMP2 =    -0.23152086173361D+03
    96 initial guesses have been made.
 Convergence on wavefunction:    0.001000000000000
 Iteration     1 Dimension    96 NMult     0 NNew     96
 New state      1 was old state      2
 New state      2 was old state      4
 New state      3 was old state      8
 New state      4 was old state      6
 New state      5 was old state      3
 New state      6 was old state      1
 New state      7 was old state     22
 New state      8 was old state     24
 New state      9 was old state     10
 New state     10 was old state     12
 New state     11 was old state      9
 New state     12 was old state     11
 New state     13 was old state     28
 New state     14 was old state      7
 New state     15 was old state      5
 New state     16 was old state     27
 New state     17 was old state     16
 New state     19 was old state     14
 New state     21 was old state     15
 New state     22 was old state     30
 New state     23 was old state     26
 New state     24 was old state     13
 New state     25 was old state     17
 New state     26 was old state     19
 New state     27 was old state     29
 New state     28 was old state     25
 New state     29 was old state     32
 New state     30 was old state     31
 New state     31 was old state     34
 New state     32 was old state     40
 New state     33 was old state     36
 New state     34 was old state     33
 New state     35 was old state     39
 New state     36 was old state     37
 New state     37 was old state     38
 New state     38 was old state     35
 New state     39 was old state     21
 New state     40 was old state     23
 New state     41 was old state     50
 New state     42 was old state     46
 New state     43 was old state     48
 New state     44 was old state     45
 New state     45 was old state     47
 New state     46 was old state     49
 New state     47 was old state     56
 New state     48 was old state     52
 Vector  20 SDiff=1.43D+00 TDiff=1.81D-01 assumed to be triplet.
 Vector  22 SDiff=1.90D+00 TDiff=1.05D+00 assumed to be triplet.
 Vector  23 SDiff=1.90D+00 TDiff=1.11D-01 assumed to be triplet.
 Vector  44 SDiff=1.45D+00 TDiff=1.79D-01 assumed to be triplet.
 Vector  46 SDiff=1.91D+00 TDiff=1.03D+00 assumed to be triplet.
 Vector  47 SDiff=1.90D+00 TDiff=1.22D-01 assumed to be triplet.
 Iteration     2 Dimension   144 NMult    96 NNew     48
 New state      9 was old state     14
 New state     10 was old state     15
 New state     11 was old state      9
 New state     12 was old state     10
 New state     13 was old state     11
 New state     14 was old state     12
 New state     15 was old state     13
 New state     16 was old state     17
 New state     17 was old state     19
 New state     19 was old state     16
 New state     20 was old state     24
 New state     22 was old state     25
 New state     23 was old state     26
 New state     24 was old state     27
 Iteration     3 Dimension   192 NMult   144 NNew     48
 New state     16 was old state     17
 New state     17 was old state     18
 New state     18 was old state     16
 New state     20 was old state     23
 New state     21 was old state     20
 New state     23 was old state     21
 Iteration     4 Dimension   240 NMult   192 NNew     48
 Iteration     5 Dimension   284 NMult   240 NNew     44
 Iteration     6 Dimension   304 NMult   284 NNew     20
 Iteration     7 Dimension   316 NMult   304 NNew     12
 Iteration     8 Dimension   326 NMult   316 NNew     10
 Iteration     9 Dimension   328 NMult   326 NNew      2
 Iteration    10 Dimension   330 NMult   328 NNew      2
 Convergence on energies, max DE= 7.68D-07.
 ***********************************************************************
 Excited states from <AA,BB:AA,BB> singles matrix:
 ***********************************************************************
 
 Ground to excited state transition densities written to RWF  633
 Ground to excited state transition electric dipole moments (Au):
       state          X           Y           Z        Dip. S.      Osc.
         1         0.0000      0.0000      0.0000      0.0000      0.0000
         2         0.0000      0.0000      0.0000      0.0000      0.0000
         3         0.0000      0.0000      0.0000      0.0000      0.0000
         4         0.0000      0.0000      0.0000      0.0000      0.0000
         5         0.0001      0.0001      0.0000      0.0000      0.0000
         6        -0.0003      0.0016     -0.0003      0.0000      0.0000
         7         0.0000      0.0000      0.0000      0.0000      0.0000
         8         0.0000      0.0000      0.0000      0.0000      0.0000
         9        -1.1451      1.5545     -0.0011      3.7277      0.7075
        10        -1.5547     -1.1452      0.0004      3.7286      0.7077
        11         0.0000      0.0000      0.0000      0.0000      0.0000
        12         0.0000      0.0000      0.0000      0.0000      0.0000
        13        -0.0009      0.0002      0.0001      0.0000      0.0000
        14         0.0002      0.0008      0.0000      0.0000      0.0000
        15         0.0000      0.0000      0.0000      0.0000      0.0000
        16         0.0000      0.0000      0.0000      0.0000      0.0000
        17         0.0000      0.0000      0.0000      0.0000      0.0000
        18         0.0000      0.0000      0.0000      0.0000      0.0000
        19        -0.0003      0.0003      0.4242      0.1799      0.0404
        20         0.0003      0.0006     -0.0001      0.0000      0.0000
        21         0.0001      0.0002      0.0000      0.0000      0.0000
        22        -0.0002      0.0003     -0.0011      0.0000      0.0000
        23        -0.0007      0.0003     -0.1618      0.0262      0.0061
        24         0.0002      0.0002      0.0001      0.0000      0.0000
 Ground to excited state transition velocity dipole moments (Au):
       state          X           Y           Z        Dip. S.      Osc.
         1         0.0000      0.0000      0.0000      0.0000      0.0000
         2         0.0000      0.0000      0.0000      0.0000      0.0000
         3         0.0000      0.0000      0.0000      0.0000      0.0000
         4         0.0000      0.0000      0.0000      0.0000      0.0000
         5         0.0000      0.0000      0.0000      0.0000      0.0000
         6         0.0001     -0.0004      0.0001      0.0000      0.0000
         7         0.0000      0.0000      0.0000      0.0000      0.0000
         8         0.0000      0.0000      0.0000      0.0000      0.0000
         9         0.3243     -0.4402      0.0003      0.2990      0.7001
        10         0.4403      0.3243     -0.0001      0.2991      0.7003
        11         0.0000      0.0000      0.0000      0.0000      0.0000
        12         0.0000      0.0000      0.0000      0.0000      0.0000
        13         0.0003      0.0000      0.0000      0.0000      0.0000
        14        -0.0001     -0.0003      0.0000      0.0000      0.0000
        15         0.0000      0.0000      0.0000      0.0000      0.0000
        16         0.0000      0.0000      0.0000      0.0000      0.0000
        17         0.0000      0.0000      0.0000      0.0000      0.0000
        18         0.0000      0.0000      0.0000      0.0000      0.0000
        19         0.0001     -0.0001     -0.1691      0.0286      0.0566
        20        -0.0001     -0.0002      0.0000      0.0000      0.0000
        21         0.0000     -0.0001      0.0000      0.0000      0.0000
        22         0.0001     -0.0001      0.0003      0.0000      0.0000
        23         0.0003     -0.0001      0.0485      0.0024      0.0045
        24        -0.0001     -0.0001     -0.0001      0.0000      0.0000
 Ground to excited state transition magnetic dipole moments (Au):
       state          X           Y           Z
         1         0.0000      0.0000      0.0000
         2         0.0000      0.0000      0.0000
         3         0.0000      0.0000      0.0000
         4         0.0000      0.0000      0.0000
         5         0.0001     -0.0001      0.0001
         6        -0.0001     -0.0004      0.0028
         7         0.0000      0.0000      0.0000
         8         0.0000      0.0000      0.0000
         9         0.0004     -0.0006     -0.9288
        10         0.0002     -0.0009     -1.1758
        11         0.0000      0.0000      0.0000
        12         0.0000      0.0000      0.0000
        13        -0.3612      0.4238     -0.0011
        14        -0.4240     -0.3612      0.0003
        15         0.0000      0.0000      0.0000
        16         0.0000      0.0000      0.0000
        17         0.0000      0.0000      0.0000
        18         0.0000      0.0000      0.0000
        19        -0.4630      0.0156     -0.0003
        20        -0.0004     -0.0004     -0.0005
        21        -0.0017     -0.0009      0.0005
        22         0.0019     -0.0003     -0.0001
        23         0.1332     -0.0046     -0.0007
        24        -0.0008     -0.0005      0.0005
 Ground to excited state transition velocity quadrupole moments (Au):
       state          XX          YY          ZZ          XY          XZ          YZ
         1         0.0000      0.0000      0.0000      0.0000      0.0000      0.0000
         2         0.0000      0.0000      0.0000      0.0000      0.0000      0.0000
         3         0.0000      0.0000      0.0000      0.0000      0.0000      0.0000
         4         0.0000      0.0000      0.0000      0.0000      0.0000      0.0000
         5        -0.0001     -0.0002      0.0001      0.0000      0.0001      0.0001
         6         0.0002     -0.0021      0.0000      0.0000      0.0004     -0.0001
         7         0.0000      0.0000      0.0000      0.0000      0.0000      0.0000
         8         0.0000      0.0000      0.0000      0.0000      0.0000      0.0000
         9         0.0596     -2.4110      0.0000      0.8479     -0.0006      0.0020
        10         0.0821      1.7762      0.0000      1.2367     -0.0006     -0.0010
        11         0.0000      0.0000      0.0000      0.0000      0.0000      0.0000
        12         0.0000      0.0000      0.0000      0.0000      0.0000      0.0000
        13         0.0004     -0.0008      0.0001      0.0007     -0.2968     -0.2529
        14        -0.0002     -0.0017      0.0005      0.0002      0.2529     -0.2968
        15         0.0000      0.0000      0.0000      0.0000      0.0000      0.0000
        16         0.0000      0.0000      0.0000      0.0000      0.0000      0.0000
        17         0.0000      0.0000      0.0000      0.0000      0.0000      0.0000
        18         0.0000      0.0000      0.0000      0.0000      0.0000      0.0000
        19         0.0006     -0.0010      0.0006      0.0005     -0.0156     -0.4629
        20        -0.0001     -0.0009      0.0000     -0.0001      0.0000      0.0000
        21        -0.0002     -0.0004      0.0001     -0.0002      0.0001     -0.0002
        22         0.0004     -0.0001     -0.0002      0.0000      0.0000      0.0010
        23        -0.0003     -0.0005     -0.0002      0.0006      0.0045      0.1330
        24         0.0001     -0.0007      0.0000     -0.0001      0.0005     -0.0005
 <0|del|b> * <b|rxdel|0> + <0|del|b> * <b|delr+rdel|0>
 Rotatory Strengths (R) in cgs (10**-40 erg-esu-cm/Gauss)
       state          XX          YY          ZZ    R(velocity)    E-M Angle
         1         0.0000      0.0000      0.0000      0.0000       90.00
         2         0.0000      0.0000      0.0000      0.0000       90.00
         3         0.0000      0.0000      0.0000      0.0000       90.00
         4         0.0000      0.0000      0.0000      0.0000       90.00
         5         0.0000      0.0000      0.0000      0.0000       90.00
         6         0.0007      0.0003      0.0000      0.0003       90.00
         7         0.0000      0.0000      0.0000      0.0000       90.00
         8         0.0000      0.0000      0.0000      0.0000       90.00
         9        -0.0487      0.2849     -0.0378      0.0661       90.00
        10        -0.1102     -0.1223      0.0373     -0.0651       90.00
        11         0.0000      0.0000      0.0000      0.0000       90.00
        12         0.0000      0.0000      0.0000      0.0000       90.00
        13        -0.0391     -0.1987     -0.0419     -0.0932      139.34
        14         0.1780      0.0599      0.0420      0.0933       90.00
        15         0.0000      0.0000      0.0000      0.0000       90.00
        16         0.0000      0.0000      0.0000      0.0000       90.00
        17         0.0000      0.0000      0.0000      0.0000       90.00
        18         0.0000      0.0000      0.0000      0.0000       90.00
        19        -0.0409      0.0447      0.0000      0.0013       90.00
        20         0.0001      0.0000      0.0001      0.0001       90.00
        21         0.0001      0.0001      0.0001      0.0001       90.00
        22         0.0000      0.0001      0.0001      0.0001       90.00
        23        -0.0042      0.0058      0.0001      0.0006       90.00
        24         0.0000      0.0001      0.0000      0.0000       90.00
 1/2[<0|r|b>*<b|rxdel|0> + (<0|rxdel|b>*<b|r|0>)*]
 Rotatory Strengths (R) in cgs (10**-40 erg-esu-cm/Gauss)
       state          XX          YY          ZZ     R(length)
         1         0.0000      0.0000      0.0000      0.0000
         2         0.0000      0.0000      0.0000      0.0000
         3         0.0000      0.0000      0.0000      0.0000
         4         0.0000      0.0000      0.0000      0.0000
         5         0.0000      0.0000      0.0000      0.0000
         6         0.0000      0.0005      0.0006      0.0003
         7         0.0000      0.0000      0.0000      0.0000
         8         0.0000      0.0000      0.0000      0.0000
         9         0.3010      0.6209     -0.7082      0.0712
        10         0.2045     -0.7158      0.3273     -0.0613
        11         0.0000      0.0000      0.0000      0.0000
        12         0.0000      0.0000      0.0000      0.0000
        13        -0.2352     -0.0495      0.0001     -0.0949
        14         0.0687      0.2149      0.0000      0.0945
        15         0.0000      0.0000      0.0000      0.0000
        16         0.0000      0.0000      0.0000      0.0000
        17         0.0000      0.0000      0.0000      0.0000
        18         0.0000      0.0000      0.0000      0.0000
        19        -0.0827     -0.0036      0.0886      0.0008
        20         0.0001      0.0002      0.0000      0.0001
        21         0.0002      0.0001      0.0000      0.0001
        22         0.0003      0.0001     -0.0001      0.0001
        23         0.0693      0.0008     -0.0808     -0.0035
        24         0.0001      0.0001      0.0000      0.0000
  1/2[<0|del|b>*<b|r|0> + (<0|r|b>*<b|del|0>)*] (Au)
       state          X           Y           Z        Dip. S.   Osc.(frdel)
         1         0.0000      0.0000      0.0000      0.0000      0.0000
         2         0.0000      0.0000      0.0000      0.0000      0.0000
         3         0.0000      0.0000      0.0000      0.0000      0.0000
         4         0.0000      0.0000      0.0000      0.0000      0.0000
         5         0.0000      0.0000      0.0000      0.0000      0.0000
         6         0.0000      0.0000      0.0000      0.0000      0.0000
         7         0.0000      0.0000      0.0000      0.0000      0.0000
         8         0.0000      0.0000      0.0000      0.0000      0.0000
         9        -0.3713     -0.6843      0.0000      1.0557      0.7038
        10        -0.6845     -0.3714      0.0000      1.0560      0.7040
        11         0.0000      0.0000      0.0000      0.0000      0.0000
        12         0.0000      0.0000      0.0000      0.0000      0.0000
        13         0.0000      0.0000      0.0000      0.0000      0.0000
        14         0.0000      0.0000      0.0000      0.0000      0.0000
        15         0.0000      0.0000      0.0000      0.0000      0.0000
        16         0.0000      0.0000      0.0000      0.0000      0.0000
        17         0.0000      0.0000      0.0000      0.0000      0.0000
        18         0.0000      0.0000      0.0000      0.0000      0.0000
        19         0.0000      0.0000     -0.0717      0.0717      0.0478
        20         0.0000      0.0000      0.0000      0.0000      0.0000
        21         0.0000      0.0000      0.0000      0.0000      0.0000
        22         0.0000      0.0000      0.0000      0.0000      0.0000
        23         0.0000      0.0000     -0.0079      0.0079      0.0052
        24         0.0000      0.0000      0.0000      0.0000      0.0000

 Excitation energies and oscillator strengths:
 
 Excited state symmetry could not be determined.
 Excited State   1:      Triplet-?Sym    -2.2497 eV    -551.11 nm  f=-0.0000  <S**2>=2.000
      17 -> 30         0.22622
      20 -> 23        -0.55257
      21 -> 22         0.55299
      17 <- 30         0.14168
      20 <- 23        -0.27953
      21 <- 22         0.27964
 This state for optimization and/or second-order correction.
 Total Energy, E(TD-HF/TD-KS) =  -230.803500797    
 Copying the excited state density for this state as the 1-particle RhoCI density.
 
 Excited state symmetry could not be determined.
 Excited State   2:      Triplet-?Sym    4.8253 eV  256.95 nm  f=0.0000  <S**2>=2.000
      20 -> 22         0.44359
      20 -> 23         0.23118
      21 -> 22         0.23100
      21 -> 23        -0.44308
 
 Excited state symmetry could not be determined.
 Excited State   3:      Triplet-?Sym    4.8257 eV  256.92 nm  f=0.0000  <S**2>=2.000
      20 -> 22        -0.23115
      20 -> 23         0.44352
      21 -> 22         0.44315
      21 -> 23         0.23102
 
 Excited state symmetry could not be determined.
 Excited State   4:      Triplet-?Sym    5.2634 eV  235.56 nm  f=0.0000  <S**2>=2.000
      20 -> 22         0.50587
      21 -> 23         0.50638
 
 Excited state symmetry could not be determined.
 Excited State   5:      Singlet-?Sym    5.9956 eV  206.79 nm  f=0.0000  <S**2>=0.000
      20 -> 22         0.50193
      21 -> 23         0.50185
 
 Excited state symmetry could not be determined.
 Excited State   6:      Singlet-?Sym    6.0385 eV  205.32 nm  f=0.0000  <S**2>=0.000
      20 -> 23        -0.49295
      21 -> 22         0.49373
 
 Excited state symmetry could not be determined.
 Excited State   7:      Triplet-?Sym    7.4701 eV  165.97 nm  f=0.0000  <S**2>=2.000
      17 -> 22         0.57525
      21 -> 30         0.40036
 
 Excited state symmetry could not be determined.
 Excited State   8:      Triplet-?Sym    7.4712 eV  165.95 nm  f=0.0000  <S**2>=2.000
      17 -> 23         0.57522
      20 -> 30        -0.40039
 
 Excited state symmetry could not be determined.
 Excited State   9:      Singlet-?Sym    7.7471 eV  160.04 nm  f=0.7075  <S**2>=0.000
      20 -> 22        -0.21741
      20 -> 23         0.44824
      21 -> 22         0.44754
      21 -> 23         0.21744
 
 Excited state symmetry could not be determined.
 Excited State  10:      Singlet-?Sym    7.7473 eV  160.03 nm  f=0.7077  <S**2>=0.000
      20 -> 22        -0.44786
      20 -> 23        -0.21760
      21 -> 22        -0.21726
      21 -> 23         0.44793
 
 Excited state symmetry could not be determined.
 Excited State  11:      Triplet-?Sym    8.2025 eV  151.15 nm  f=0.0000  <S**2>=2.000
      17 -> 26        -0.14220
      20 -> 28        -0.10055
      21 -> 24         0.66645
      21 -> 27         0.10061
 
 Excited state symmetry could not be determined.
 Excited State  12:      Triplet-?Sym    8.2036 eV  151.13 nm  f=0.0000  <S**2>=2.000
      17 -> 25        -0.14227
      20 -> 24         0.66641
      20 -> 27        -0.10062
      21 -> 28        -0.10066
 
 Excited state symmetry could not be determined.
 Excited State  13:      Singlet-?Sym    8.4697 eV  146.39 nm  f=0.0000  <S**2>=0.000
      17 -> 26        -0.12938
      21 -> 24         0.67806
 
 Excited state symmetry could not be determined.
 Excited State  14:      Singlet-?Sym    8.4708 eV  146.37 nm  f=0.0000  <S**2>=0.000
      17 -> 25        -0.12945
      20 -> 24         0.67803
 
 Excited state symmetry could not be determined.
 Excited State  15:      Triplet-?Sym    8.7864 eV  141.11 nm  f=0.0000  <S**2>=2.000
      17 -> 24        -0.24201
      18 -> 22         0.16907
      19 -> 23         0.16957
      20 -> 25         0.41200
      20 -> 26         0.11600
      21 -> 25        -0.11607
      21 -> 26         0.41234
 
 Excited state symmetry could not be determined.
 Excited State  16:      Triplet-?Sym    8.8038 eV  140.83 nm  f=0.0000  <S**2>=2.000
      14 -> 30        -0.18083
      18 -> 23        -0.46076
      19 -> 22         0.47269
 
 Excited state symmetry could not be determined.
 Excited State  17:      Triplet-?Sym    8.9614 eV  138.35 nm  f=0.0000  <S**2>=2.000
      12 -> 22         0.10443
      16 -> 30         0.15086
      18 -> 22        -0.20811
      18 -> 23         0.43287
      19 -> 22         0.42254
      19 -> 23         0.20408
 
 Excited state symmetry could not be determined.
 Excited State  18:      Triplet-?Sym    8.9615 eV  138.35 nm  f=0.0000  <S**2>=2.000
      12 -> 23        -0.10433
      15 -> 30        -0.15076
      18 -> 22        -0.41144
      18 -> 23        -0.20662
      19 -> 22        -0.20520
      19 -> 23         0.44358
 
 Excited state symmetry could not be determined.
 Excited State  19:      Singlet-?Sym    9.1657 eV  135.27 nm  f=0.0404  <S**2>=0.000
      17 -> 24        -0.23698
      18 -> 22        -0.10902
      19 -> 23        -0.10915
      20 -> 25         0.43457
      20 -> 26         0.12232
      21 -> 25        -0.12247
      21 -> 26         0.43506
 
 Excited state symmetry could not be determined.
 Excited State  20:      Singlet-?Sym    9.2243 eV  134.41 nm  f=0.0000  <S**2>=0.000
      14 -> 30        -0.16219
      18 -> 23        -0.46976
      19 -> 22         0.47636
 
 Excited state symmetry could not be determined.
 Excited State  21:      Singlet-?Sym    9.5114 eV  130.35 nm  f=0.0000  <S**2>=0.000
      16 -> 30         0.12514
      18 -> 22        -0.21421
      18 -> 23         0.42134
      19 -> 22         0.41555
      19 -> 23         0.21344
 
 Excited state symmetry could not be determined.
 Excited State  22:      Singlet-?Sym    9.5115 eV  130.35 nm  f=0.0000  <S**2>=0.000
      15 -> 30        -0.12512
      18 -> 22        -0.41496
      18 -> 23        -0.21486
      19 -> 22        -0.21278
      19 -> 23         0.42195
 
 Excited state symmetry could not be determined.
 Excited State  23:      Singlet-?Sym    9.5712 eV  129.54 nm  f=0.0061  <S**2>=0.000
      13 -> 30         0.10508
      18 -> 22         0.48010
      19 -> 23         0.47429
      20 -> 25         0.10279
      21 -> 26         0.10203
 
 Excited state symmetry could not be determined.
 Excited State  24:      Singlet-?Sym    9.8753 eV  125.55 nm  f=0.0000  <S**2>=0.000
      17 -> 27         0.10837
      20 -> 25         0.41250
      20 -> 26        -0.21205
      21 -> 25        -0.21288
      21 -> 26        -0.41239
      21 -> 29        -0.13917
 SavETr:  write IOETrn=   770 NScale= 10 NData=  16 NLR=1 NState=   24 LETran=     442.

 **********************************************************************

            Population analysis using the SCF density.

 **********************************************************************

 Alpha  occ. eigenvalues --  -11.24157 -11.24102 -11.24101 -11.23983 -11.23982
 Alpha  occ. eigenvalues --  -11.23924  -1.14813  -1.01173  -1.01168  -0.81884
 Alpha  occ. eigenvalues --   -0.81878  -0.70120  -0.63481  -0.61566  -0.58138
 Alpha  occ. eigenvalues --   -0.58136  -0.49961  -0.48871  -0.48861  -0.33417
 Alpha  occ. eigenvalues --   -0.33411
 Alpha virt. eigenvalues --    0.13686   0.13691   0.17963   0.21876   0.21877
 Alpha virt. eigenvalues --    0.25487   0.25488   0.27052   0.35051   0.43614
 Alpha virt. eigenvalues --    0.43618   0.46777   0.46784   0.58404   0.58515
 Alpha virt. eigenvalues --    0.66669   0.67988   0.71141   0.73111   0.73114
 Alpha virt. eigenvalues --    0.73595   0.73600   0.73797   0.73804   0.74267
 Alpha virt. eigenvalues --    0.82209   0.82212   0.84884   0.84889   0.88224
 Alpha virt. eigenvalues --    0.88229   0.90913   0.98749   0.99583   1.04765
 Alpha virt. eigenvalues --    1.10602   1.10609   1.12523   1.15115   1.20579
 Alpha virt. eigenvalues --    1.20581   1.24302   1.24307   1.24381   1.24382
 Alpha virt. eigenvalues --    1.30496   1.31834   1.31836   1.46157   1.50797
 Alpha virt. eigenvalues --    1.50799   1.72146   1.73969   1.73972   1.76322
 Alpha virt. eigenvalues --    1.80617   1.86989   1.86992   1.88490   1.88493
 Alpha virt. eigenvalues --    1.88986   1.94443   1.94453   1.95815   1.95825
 Alpha virt. eigenvalues --    1.96345   2.08702   2.08707   2.10662   2.14648
 Alpha virt. eigenvalues --    2.14651   2.15963   2.15978   2.16666   2.25390
 Alpha virt. eigenvalues --    2.25396   2.26429   2.26431   2.30750   2.49911
 Alpha virt. eigenvalues --    2.54592   2.67074   2.74893   2.74905   2.75554
 Alpha virt. eigenvalues --    2.75556   2.94355   2.94368   2.99833   3.11197
 Alpha virt. eigenvalues --    3.24468   3.24473   3.99691
     Molecular Orbital Coefficients:
                           1         2         3         4         5
                           O         O         O         O         O
     Eigenvalues --   -11.24157 -11.24102 -11.24101 -11.23983 -11.23982
   1 1   C  1S          0.39113   0.56514  -0.14902   0.54968  -0.14014
   2        2S          0.00677   0.01022  -0.00270   0.01018  -0.00260
   3        3S         -0.00171  -0.00449   0.00119  -0.00618   0.00159
   4        4PX        -0.00004  -0.00001   0.00004  -0.00003  -0.00005
   5        4PY        -0.00007  -0.00004  -0.00001  -0.00001   0.00004
   6        4PZ         0.00000   0.00000   0.00000   0.00000   0.00000
   7        5PX         0.00012  -0.00052  -0.00123  -0.00056   0.00080
   8        5PY         0.00020  -0.00012   0.00082  -0.00134  -0.00003
   9        5PZ         0.00000   0.00000   0.00000   0.00000   0.00000
  10        6D 0       -0.00006  -0.00007   0.00002  -0.00047   0.00012
  11        6D+1        0.00000   0.00000   0.00000   0.00000   0.00000
  12        6D-1        0.00000   0.00000   0.00000   0.00000   0.00000
  13        6D+2       -0.00004  -0.00003   0.00001  -0.00005  -0.00011
  14        6D-2        0.00007   0.00006  -0.00001   0.00001  -0.00007
  15 2   C  1S          0.39669   0.16497  -0.55239  -0.13970   0.55804
  16        2S          0.00687   0.00298  -0.00999  -0.00258   0.01034
  17        3S         -0.00173  -0.00128   0.00440   0.00151  -0.00634
  18        4PX         0.00004   0.00004  -0.00001   0.00005   0.00003
  19        4PY        -0.00007   0.00001   0.00004   0.00004  -0.00001
  20        4PZ         0.00000   0.00000   0.00000   0.00000   0.00000
  21        5PX        -0.00008  -0.00123  -0.00053  -0.00077   0.00059
  22        5PY         0.00023  -0.00082   0.00011  -0.00006  -0.00139
  23        5PZ         0.00000   0.00000   0.00000   0.00000   0.00000
  24        6D 0       -0.00006  -0.00002   0.00006   0.00012  -0.00048
  25        6D+1        0.00000   0.00000   0.00000   0.00000   0.00000
  26        6D-1        0.00000   0.00000   0.00000   0.00000   0.00000
  27        6D+2       -0.00004  -0.00001   0.00003  -0.00011  -0.00005
  28        6D-2       -0.00007  -0.00001   0.00005   0.00007  -0.00001
  29 3   C  1S          0.41690  -0.39135  -0.41843  -0.41548  -0.40263
  30        2S          0.00724  -0.00709  -0.00757  -0.00770  -0.00746
  31        3S         -0.00191   0.00317   0.00338   0.00484   0.00462
  32        4PX         0.00008  -0.00002  -0.00003  -0.00002  -0.00002
  33        4PY         0.00000   0.00003  -0.00003  -0.00005   0.00005
  34        4PZ         0.00000   0.00000   0.00000   0.00000   0.00000
  35        5PX        -0.00022  -0.00027  -0.00030  -0.00118  -0.00111
  36        5PY         0.00004  -0.00109   0.00108   0.00050  -0.00051
  37        5PZ         0.00000   0.00000   0.00000   0.00000   0.00000
  38        6D 0       -0.00006   0.00004   0.00006   0.00036   0.00035
  39        6D+1        0.00000   0.00000   0.00000   0.00000   0.00000
  40        6D-1        0.00000   0.00000   0.00000   0.00000   0.00000
  41        6D+2        0.00009  -0.00004  -0.00005  -0.00003  -0.00003
  42        6D-2        0.00000  -0.00001   0.00000   0.00009  -0.00009
  43 4   C  1S          0.42638  -0.54944   0.14861   0.56358  -0.14274
  44        2S          0.00741  -0.00995   0.00269   0.01045  -0.00265
  45        3S         -0.00198   0.00448  -0.00122  -0.00657   0.00166
  46        4PX         0.00004  -0.00001   0.00004   0.00002   0.00005
  47        4PY         0.00007  -0.00004  -0.00001   0.00001  -0.00004
  48        4PZ         0.00000   0.00000   0.00000   0.00000   0.00000
  49        5PX        -0.00010  -0.00055  -0.00123   0.00066  -0.00079
  50        5PY        -0.00018  -0.00015   0.00084   0.00147  -0.00001
  51        5PZ         0.00000   0.00000   0.00000   0.00000   0.00000
  52        6D 0       -0.00007   0.00007  -0.00002  -0.00050   0.00013
  53        6D+1        0.00000   0.00000   0.00000   0.00000   0.00000
  54        6D-1        0.00000   0.00000   0.00000   0.00000   0.00000
  55        6D+2       -0.00004   0.00003  -0.00001  -0.00005  -0.00011
  56        6D-2        0.00008  -0.00005   0.00001   0.00002  -0.00007
  57 5   C  1S          0.41311  -0.13294   0.55667  -0.17331   0.55283
  58        2S          0.00717  -0.00241   0.01008  -0.00322   0.01025
  59        3S         -0.00187   0.00108  -0.00448   0.00206  -0.00635
  60        4PX        -0.00004   0.00004  -0.00001  -0.00005  -0.00003
  61        4PY         0.00007   0.00001   0.00004  -0.00004   0.00001
  62        4PZ         0.00000   0.00000   0.00000   0.00000   0.00000
  63        5PX         0.00015  -0.00124  -0.00053   0.00085  -0.00059
  64        5PY        -0.00017  -0.00082   0.00014  -0.00010   0.00142
  65        5PZ         0.00000   0.00000   0.00000   0.00000   0.00000
  66        6D 0       -0.00006   0.00001  -0.00007   0.00015  -0.00048
  67        6D+1        0.00000   0.00000   0.00000   0.00000   0.00000
  68        6D-1        0.00000   0.00000   0.00000   0.00000   0.00000
  69        6D+2       -0.00004   0.00001  -0.00003  -0.00010  -0.00005
  70        6D-2       -0.00007   0.00001  -0.00005   0.00008  -0.00001
  71 6   C  1S          0.39649   0.41828   0.39985  -0.39109  -0.41923
  72        2S          0.00687   0.00756   0.00724  -0.00724  -0.00777
  73        3S         -0.00174  -0.00330  -0.00321   0.00437   0.00480
  74        4PX        -0.00008  -0.00003  -0.00003   0.00002   0.00002
  75        4PY         0.00000   0.00003  -0.00003   0.00005  -0.00004
  76        4PZ         0.00000   0.00000   0.00000   0.00000   0.00000
  77        5PX         0.00023  -0.00026  -0.00027   0.00102   0.00115
  78        5PY         0.00004  -0.00108   0.00108  -0.00053   0.00049
  79        5PZ         0.00000   0.00000   0.00000   0.00000   0.00000
  80        6D 0       -0.00006  -0.00005  -0.00004   0.00033   0.00036
  81        6D+1        0.00000   0.00000   0.00000   0.00000   0.00000
  82        6D-1        0.00000   0.00000   0.00000   0.00000   0.00000
  83        6D+2        0.00008   0.00005   0.00005  -0.00002  -0.00003
  84        6D-2        0.00000   0.00000   0.00000   0.00010  -0.00009
  85 7   H  1S         -0.00013  -0.00015   0.00004  -0.00031   0.00008
  86        2S          0.00066   0.00058  -0.00015   0.00023  -0.00006
  87        3PX        -0.00007  -0.00012   0.00004  -0.00019   0.00004
  88        3PY        -0.00012  -0.00021   0.00005  -0.00032   0.00009
  89        3PZ         0.00000   0.00000   0.00000   0.00000   0.00000
  90 8   H  1S         -0.00013  -0.00005   0.00015   0.00008  -0.00032
  91        2S          0.00066   0.00018  -0.00057  -0.00006   0.00023
  92        3PX         0.00007   0.00004  -0.00011  -0.00004   0.00019
  93        3PY        -0.00012  -0.00006   0.00020   0.00009  -0.00033
  94        3PZ         0.00000   0.00000   0.00000   0.00000   0.00000
  95 9   H  1S         -0.00014   0.00010   0.00012   0.00024   0.00023
  96        2S          0.00068  -0.00039  -0.00042  -0.00015  -0.00016
  97        3PX         0.00015  -0.00017  -0.00018  -0.00028  -0.00028
  98        3PY         0.00000   0.00001  -0.00001  -0.00001   0.00001
  99        3PZ         0.00000   0.00000   0.00000   0.00000   0.00000
 100 10  H  1S         -0.00014   0.00015  -0.00004  -0.00033   0.00008
 101        2S          0.00069  -0.00055   0.00015   0.00021  -0.00005
 102        3PX         0.00007  -0.00012   0.00004   0.00020  -0.00004
 103        3PY         0.00013  -0.00021   0.00005   0.00033  -0.00009
 104        3PZ         0.00000   0.00000   0.00000   0.00000   0.00000
 105 11  H  1S         -0.00013   0.00003  -0.00015   0.00010  -0.00032
 106        2S          0.00068  -0.00013   0.00056  -0.00006   0.00021
 107        3PX        -0.00007   0.00003  -0.00012   0.00005  -0.00019
 108        3PY         0.00012  -0.00004   0.00021  -0.00011   0.00033
 109        3PZ         0.00000   0.00000   0.00000   0.00000   0.00000
 110 12  H  1S         -0.00013  -0.00011  -0.00011   0.00022   0.00024
 111        2S          0.00066   0.00043   0.00041  -0.00017  -0.00017
 112        3PX        -0.00014  -0.00018  -0.00017   0.00027   0.00029
 113        3PY         0.00000   0.00001  -0.00001   0.00001  -0.00001
 114        3PZ         0.00000   0.00000   0.00000   0.00000   0.00000
                           6         7         8         9        10
                           O         O         O         O         O
     Eigenvalues --   -11.23924  -1.14813  -1.01173  -1.01168  -0.81884
   1 1   C  1S          0.42215  -0.08972  -0.03291  -0.12068  -0.09205
   2        2S          0.00804   0.17909   0.06492   0.23804   0.18922
   3        3S         -0.00808   0.10007   0.03984   0.14592   0.15793
   4        4PX         0.00000   0.03283   0.10228  -0.01059   0.02989
   5        4PY         0.00001   0.05692  -0.04883   0.04359  -0.07988
   6        4PZ         0.00000  -0.00003   0.00004  -0.00003   0.00004
   7        5PX        -0.00143   0.00603   0.03796   0.00055   0.01862
   8        5PY        -0.00247   0.01043  -0.01547   0.02317  -0.00622
   9        5PZ         0.00000   0.00000   0.00001  -0.00001   0.00000
  10        6D 0       -0.00056  -0.00908  -0.00264  -0.00966  -0.00380
  11        6D+1        0.00000   0.00000   0.00000   0.00001   0.00000
  12        6D-1        0.00000  -0.00001   0.00001  -0.00001   0.00000
  13        6D+2       -0.00004   0.00280   0.01724   0.00045   0.00562
  14        6D-2        0.00007  -0.00485   0.00692  -0.01084   0.00004
  15 2   C  1S         -0.41706  -0.08972  -0.12101  -0.03172   0.01951
  16        2S         -0.00795   0.17909   0.23869   0.06257  -0.04009
  17        3S          0.00800   0.10003   0.14631   0.03839  -0.03346
  18        4PX         0.00001  -0.03282   0.00961  -0.10240  -0.18274
  19        4PY        -0.00001   0.05692   0.04315  -0.04927  -0.09225
  20        4PZ         0.00000   0.00000   0.00003   0.00001  -0.00002
  21        5PX        -0.00143  -0.00601  -0.00090  -0.03796  -0.05122
  22        5PY         0.00244   0.01041   0.02302  -0.01569  -0.03052
  23        5PZ         0.00000   0.00000  -0.00001   0.00000   0.00000
  24        6D 0        0.00055  -0.00907  -0.00968  -0.00255   0.00080
  25        6D+1        0.00000   0.00000   0.00000   0.00000   0.00000
  26        6D-1        0.00000   0.00000   0.00000   0.00000   0.00000
  27        6D+2        0.00004   0.00281   0.00062   0.01723   0.01285
  28        6D-2        0.00007   0.00486   0.01077  -0.00703  -0.00810
  29 3   C  1S          0.39723  -0.08968  -0.08806   0.08886   0.07248
  30        2S          0.00758   0.17902   0.17371  -0.17527  -0.14900
  31        3S         -0.00778   0.10003   0.10648  -0.10749  -0.12435
  32        4PX        -0.00001  -0.06569  -0.02372   0.02390  -0.04266
  33        4PY         0.00000  -0.00009  -0.08334  -0.08231   0.13857
  34        4PZ         0.00000  -0.00004   0.00002   0.00007  -0.00008
  35        5PX         0.00278  -0.01204  -0.01483   0.01500   0.00309
  36        5PY         0.00002  -0.00001  -0.02991  -0.02961   0.04041
  37        5PZ         0.00000  -0.00001   0.00001   0.00002  -0.00002
  38        6D 0       -0.00054  -0.00907  -0.00704   0.00712   0.00299
  39        6D+1        0.00000   0.00001   0.00000  -0.00001   0.00000
  40        6D-1        0.00000  -0.00001   0.00000   0.00002  -0.00001
  41        6D+2        0.00008  -0.00560  -0.00700   0.00708   0.00218
  42        6D-2        0.00000   0.00001   0.01356   0.01340  -0.01029
  43 4   C  1S         -0.38834  -0.08967   0.03301   0.12067  -0.09204
  44        2S         -0.00742   0.17899  -0.06512  -0.23803   0.18921
  45        3S          0.00768   0.10002  -0.03990  -0.14596   0.15795
  46        4PX         0.00000  -0.03290   0.10232  -0.01036  -0.02983
  47        4PY         0.00001  -0.05685  -0.04880   0.04349   0.07980
  48        4PZ         0.00000   0.00003   0.00006  -0.00005  -0.00005
  49        5PX        -0.00138  -0.00603   0.03793   0.00061  -0.01856
  50        5PY        -0.00238  -0.01043  -0.01550   0.02316   0.00619
  51        5PZ         0.00000   0.00001   0.00003  -0.00001  -0.00001
  52        6D 0        0.00053  -0.00907   0.00263   0.00966  -0.00380
  53        6D+1        0.00000   0.00001   0.00000  -0.00001   0.00001
  54        6D-1        0.00000  -0.00001  -0.00001   0.00002   0.00000
  55        6D+2        0.00004   0.00280  -0.01724  -0.00047   0.00562
  56        6D-2       -0.00007  -0.00485  -0.00693   0.01082   0.00004
  57 5   C  1S          0.40088  -0.08970   0.12097   0.03187   0.01956
  58        2S          0.00765   0.17906  -0.23862  -0.06286  -0.04022
  59        3S         -0.00782   0.10003  -0.14630  -0.03850  -0.03359
  60        4PX         0.00000   0.03286   0.00944  -0.10246   0.18278
  61        4PY        -0.00001  -0.05690   0.04306  -0.04924   0.09219
  62        4PZ         0.00000   0.00006  -0.00005   0.00001  -0.00003
  63        5PX        -0.00138   0.00600  -0.00095  -0.03793   0.05122
  64        5PY         0.00242  -0.01042   0.02301  -0.01574   0.03053
  65        5PZ         0.00000   0.00001  -0.00002   0.00000  -0.00001
  66        6D 0       -0.00054  -0.00907   0.00969   0.00254   0.00081
  67        6D+1        0.00000   0.00000   0.00000  -0.00001   0.00001
  68        6D-1        0.00000  -0.00001   0.00001  -0.00001   0.00001
  69        6D+2       -0.00004   0.00280  -0.00063  -0.01724   0.01285
  70        6D-2       -0.00006   0.00486  -0.01076   0.00702  -0.00810
  71 6   C  1S         -0.41692  -0.08972   0.08801  -0.08890   0.07253
  72        2S         -0.00795   0.17908  -0.17359   0.17535  -0.14908
  73        3S          0.00801   0.10005  -0.10644   0.10748  -0.12443
  74        4PX        -0.00001   0.06571  -0.02368   0.02391   0.04274
  75        4PY         0.00000  -0.00004  -0.08318  -0.08253  -0.13862
  76        4PZ         0.00000  -0.00001   0.00007   0.00004   0.00011
  77        5PX         0.00283   0.01204  -0.01486   0.01497  -0.00309
  78        5PY        -0.00001  -0.00001  -0.02989  -0.02964  -0.04046
  79        5PZ         0.00000   0.00000   0.00002   0.00002   0.00003
  80        6D 0        0.00055  -0.00908   0.00705  -0.00711   0.00300
  81        6D+1        0.00000   0.00000   0.00001   0.00001   0.00001
  82        6D-1        0.00000  -0.00001   0.00001  -0.00001   0.00001
  83        6D+2       -0.00008  -0.00560   0.00701  -0.00708   0.00219
  84        6D-2        0.00000   0.00000  -0.01354  -0.01342  -0.01029
  85 7   H  1S         -0.00036   0.04563   0.02697   0.09887   0.14435
  86        2S         -0.00020   0.00066   0.00330   0.01206   0.03063
  87        3PX        -0.00017   0.00411   0.00447   0.00668   0.00936
  88        3PY        -0.00029   0.00711   0.00205   0.01313   0.01383
  89        3PZ         0.00000   0.00000   0.00000  -0.00001  -0.00001
  90 8   H  1S          0.00036   0.04563   0.09911   0.02601  -0.03054
  91        2S          0.00020   0.00065   0.01209   0.00318  -0.00648
  92        3PX        -0.00017  -0.00410  -0.00672  -0.00441  -0.00144
  93        3PY         0.00029   0.00712   0.01315   0.00192  -0.00490
  94        3PZ         0.00000  -0.00001  -0.00002   0.00000   0.00000
  95 9   H  1S         -0.00035   0.04560   0.07211  -0.07279  -0.11362
  96        2S         -0.00021   0.00066   0.00879  -0.00889  -0.02411
  97        3PX         0.00032  -0.00821  -0.01073   0.01083   0.01311
  98        3PY         0.00000   0.00000  -0.00210  -0.00208   0.00251
  99        3PZ         0.00000   0.00000  -0.00001   0.00001   0.00001
 100 10  H  1S          0.00034   0.04559  -0.02701  -0.09885   0.14429
 101        2S          0.00022   0.00066  -0.00329  -0.01207   0.03062
 102        3PX        -0.00016  -0.00411   0.00448   0.00669  -0.00936
 103        3PY        -0.00027  -0.00711   0.00205   0.01312  -0.01382
 104        3PZ         0.00000   0.00000   0.00000   0.00000   0.00000
 105 11  H  1S         -0.00035   0.04561  -0.09906  -0.02608  -0.03072
 106        2S         -0.00021   0.00065  -0.01209  -0.00317  -0.00652
 107        3PX        -0.00016   0.00411  -0.00673  -0.00442   0.00143
 108        3PY         0.00028  -0.00711   0.01314   0.00193   0.00492
 109        3PZ         0.00000   0.00001  -0.00001   0.00000   0.00000
 110 12  H  1S          0.00036   0.04563  -0.07210   0.07282  -0.11375
 111        2S          0.00020   0.00066  -0.00880   0.00888  -0.02414
 112        3PX         0.00033   0.00821  -0.01073   0.01084  -0.01313
 113        3PY         0.00000   0.00000  -0.00210  -0.00208  -0.00251
 114        3PZ         0.00000   0.00000   0.00000   0.00000   0.00000
                          11        12        13        14        15
                           O         O         O         O         O
     Eigenvalues --    -0.81878  -0.70120  -0.63481  -0.61566  -0.58138
   1 1   C  1S          0.03055   0.00871  -0.05464  -0.00003   0.00085
   2        2S         -0.06279  -0.01182   0.11066   0.00007  -0.00198
   3        3S         -0.05241  -0.03115   0.15665   0.00015  -0.00274
   4        4PX         0.18048   0.09434  -0.06368   0.23974  -0.08116
   5        4PY        -0.08342   0.16359  -0.11001  -0.13820   0.03225
   6        4PZ         0.00006  -0.00009   0.00003   0.00005   0.00003
   7        5PX         0.04938   0.03202  -0.00785   0.08346  -0.00370
   8        5PY        -0.03001   0.05555  -0.01348  -0.04808  -0.00389
   9        5PZ         0.00003  -0.00004  -0.00001   0.00002   0.00003
  10        6D 0        0.00126  -0.00141   0.00086  -0.00001   0.00005
  11        6D+1        0.00000  -0.00001  -0.00001  -0.00001   0.00001
  12        6D-1        0.00001   0.00000  -0.00001   0.00000  -0.00001
  13        6D+2        0.01227  -0.00250  -0.01203   0.00889  -0.01781
  14        6D-2        0.00815   0.00433   0.02081   0.00515  -0.00990
  15 2   C  1S         -0.09499   0.00873   0.05465   0.00004   0.01625
  16        2S          0.19526  -0.01186  -0.11068  -0.00008  -0.03804
  17        3S          0.16301  -0.03119  -0.15670  -0.00008  -0.05114
  18        4PX        -0.00849  -0.09435  -0.06328  -0.23981   0.09380
  19        4PY        -0.06955   0.16358   0.10996  -0.13825  -0.24224
  20        4PZ         0.00008  -0.00015  -0.00012  -0.00002   0.00024
  21        5PX        -0.01269  -0.03205  -0.00774  -0.08341   0.05172
  22        5PY        -0.00264   0.05554   0.01345  -0.04811  -0.09071
  23        5PZ         0.00000  -0.00004  -0.00002  -0.00001   0.00009
  24        6D 0       -0.00393  -0.00141  -0.00086  -0.00001   0.00091
  25        6D+1        0.00000   0.00000  -0.00001  -0.00001   0.00001
  26        6D-1        0.00000   0.00001   0.00002  -0.00001  -0.00001
  27        6D+2        0.00414  -0.00250   0.01202   0.00892   0.00454
  28        6D-2        0.00092  -0.00433   0.02080  -0.00514  -0.01093
  29 3   C  1S          0.06446   0.00871  -0.05464  -0.00002   0.01547
  30        2S         -0.13250  -0.01182   0.11066   0.00004  -0.03619
  31        3S         -0.11067  -0.03117   0.15666   0.00015  -0.04865
  32        4PX        -0.03802  -0.18875   0.12709   0.00026   0.24368
  33        4PY        -0.15596  -0.00004  -0.00006   0.27671   0.04653
  34        4PZ         0.00007  -0.00012   0.00007  -0.00012   0.00020
  35        5PX         0.00275  -0.06409   0.01561   0.00005   0.09915
  36        5PY        -0.04553  -0.00002  -0.00007   0.09632   0.00070
  37        5PZ         0.00003  -0.00004   0.00000  -0.00004   0.00011
  38        6D 0        0.00267  -0.00141   0.00086  -0.00001   0.00086
  39        6D+1       -0.00001   0.00001   0.00001   0.00000   0.00000
  40        6D-1        0.00001   0.00000   0.00001  -0.00002   0.00000
  41        6D+2        0.00194   0.00500   0.02403   0.00003   0.00681
  42        6D-2        0.01158   0.00000   0.00000  -0.01028  -0.01099
  43 4   C  1S          0.03062   0.00873   0.05464   0.00005  -0.00083
  44        2S         -0.06294  -0.01187  -0.11066  -0.00010   0.00195
  45        3S         -0.05257  -0.03119  -0.15666  -0.00008   0.00252
  46        4PX        -0.18051  -0.09441  -0.06374   0.23970  -0.08136
  47        4PY         0.08333  -0.16344  -0.10993  -0.13827   0.03186
  48        4PZ        -0.00014   0.00004   0.00001   0.00023   0.00002
  49        5PX        -0.04937  -0.03204  -0.00781   0.08344  -0.00376
  50        5PY         0.03001  -0.05551  -0.01351  -0.04813  -0.00390
  51        5PZ        -0.00004   0.00002   0.00000   0.00008   0.00003
  52        6D 0        0.00127  -0.00141  -0.00086  -0.00001  -0.00004
  53        6D+1        0.00000  -0.00001   0.00002   0.00000   0.00000
  54        6D-1        0.00002  -0.00001  -0.00001  -0.00001   0.00001
  55        6D+2        0.01227  -0.00250   0.01202  -0.00890   0.01783
  56        6D-2        0.00815   0.00433  -0.02081  -0.00514   0.00987
  57 5   C  1S         -0.09499   0.00873  -0.05466  -0.00001  -0.01625
  58        2S          0.19527  -0.01186   0.11069   0.00002   0.03803
  59        3S          0.16304  -0.03121   0.15673   0.00006   0.05121
  60        4PX         0.00836   0.09443  -0.06334  -0.23973   0.09397
  61        4PY         0.06942  -0.16345   0.10994  -0.13842  -0.24190
  62        4PZ        -0.00005   0.00015  -0.00015   0.00007   0.00029
  63        5PX         0.01262   0.03208  -0.00769  -0.08340   0.05177
  64        5PY         0.00260  -0.05550   0.01350  -0.04816  -0.09068
  65        5PZ         0.00000   0.00005  -0.00003   0.00003   0.00012
  66        6D 0       -0.00392  -0.00141   0.00086   0.00000  -0.00091
  67        6D+1        0.00000   0.00000   0.00001  -0.00001  -0.00001
  68        6D-1        0.00000  -0.00001  -0.00001  -0.00001  -0.00001
  69        6D+2        0.00413  -0.00251  -0.01200  -0.00893  -0.00454
  70        6D-2        0.00092  -0.00433  -0.02081   0.00513   0.01090
  71 6   C  1S          0.06439   0.00872   0.05464   0.00002  -0.01549
  72        2S         -0.13235  -0.01183  -0.11066  -0.00004   0.03622
  73        3S         -0.11049  -0.03116  -0.15664  -0.00001   0.04879
  74        4PX         0.03796   0.18883   0.12706   0.00030   0.24345
  75        4PY         0.15598  -0.00011  -0.00012   0.27672   0.04624
  76        4PZ        -0.00010   0.00001  -0.00002  -0.00021   0.00002
  77        5PX        -0.00274   0.06411   0.01558   0.00011   0.09910
  78        5PY         0.04550  -0.00002  -0.00002   0.09632   0.00056
  79        5PZ        -0.00003   0.00001  -0.00001  -0.00007   0.00002
  80        6D 0        0.00266  -0.00141  -0.00086  -0.00001  -0.00086
  81        6D+1       -0.00001   0.00000   0.00000  -0.00001  -0.00001
  82        6D-1        0.00000   0.00000  -0.00002  -0.00001   0.00000
  83        6D+2        0.00194   0.00500  -0.02403  -0.00001  -0.00679
  84        6D-2        0.01158   0.00000   0.00001   0.01027   0.01096
  85 7   H  1S         -0.04790  -0.14907   0.18337  -0.00009   0.00968
  86        2S         -0.01016  -0.03746   0.07179  -0.00002   0.00351
  87        3PX         0.00034  -0.00652   0.00656   0.00453  -0.00379
  88        3PY        -0.00658  -0.01130   0.01137  -0.00263   0.00293
  89        3PZ         0.00000   0.00000  -0.00001   0.00000   0.00000
  90 8   H  1S          0.14898  -0.14910  -0.18318  -0.00014   0.19807
  91        2S          0.03162  -0.03747  -0.07173  -0.00006   0.07243
  92        3PX        -0.00925   0.00652   0.00655  -0.00453  -0.00844
  93        3PY         0.01451  -0.01130  -0.01136  -0.00263   0.01024
  94        3PZ        -0.00002   0.00002   0.00002   0.00000  -0.00002
  95 9   H  1S         -0.10112  -0.14901   0.18335   0.00027   0.18796
  96        2S         -0.02146  -0.03744   0.07178   0.00011   0.06871
  97        3PX         0.01167   0.01304  -0.01312  -0.00001  -0.01242
  98        3PY        -0.00282   0.00000   0.00000   0.00523   0.00255
  99        3PZ         0.00001   0.00001  -0.00001   0.00000  -0.00001
 100 10  H  1S         -0.04808  -0.14903  -0.18332   0.00009  -0.01010
 101        2S         -0.01020  -0.03745  -0.07177   0.00002  -0.00371
 102        3PX        -0.00033   0.00652   0.00656   0.00453  -0.00377
 103        3PY         0.00659   0.01129   0.01136  -0.00262   0.00295
 104        3PZ         0.00000   0.00000   0.00000   0.00000   0.00000
 105 11  H  1S          0.14892  -0.14903   0.18318   0.00005  -0.19786
 106        2S          0.03161  -0.03745   0.07173   0.00001  -0.07232
 107        3PX         0.00925  -0.00652   0.00656  -0.00454  -0.00843
 108        3PY        -0.01450   0.01129  -0.01135  -0.00262   0.01023
 109        3PZ         0.00001  -0.00001   0.00001   0.00000  -0.00001
 110 12  H  1S         -0.10097  -0.14908  -0.18333  -0.00025  -0.18774
 111        2S         -0.02143  -0.03746  -0.07178  -0.00009  -0.06862
 112        3PX        -0.01165  -0.01304  -0.01312  -0.00002  -0.01241
 113        3PY         0.00283   0.00000   0.00000   0.00524   0.00255
 114        3PZ         0.00000   0.00000   0.00000   0.00000   0.00000
                          16        17        18        19        20
                           O         O         O         O         O
     Eigenvalues --    -0.58136  -0.49961  -0.48871  -0.48861  -0.33417
   1 1   C  1S         -0.01834  -0.00001   0.00264  -0.00133   0.00000
   2        2S          0.04290   0.00002  -0.01131   0.00577   0.00001
   3        3S          0.05774   0.00003   0.00312  -0.00170  -0.00015
   4        4PX         0.14069   0.00011  -0.19842  -0.14502   0.00004
   5        4PY         0.25215   0.00005  -0.11084   0.19973   0.00001
   6        4PZ        -0.00014   0.21561   0.00011   0.00000   0.10591
   7        5PX         0.05858   0.00004  -0.08297  -0.05831  -0.00004
   8        5PY         0.10185   0.00004  -0.04858   0.08330  -0.00005
   9        5PZ        -0.00006   0.12847   0.00006   0.00002   0.08530
  10        6D 0       -0.00102  -0.00001  -0.00004   0.00002   0.00001
  11        6D+1        0.00000   0.00791  -0.00001   0.00002   0.02679
  12        6D-1        0.00000   0.01371  -0.00001   0.00000  -0.01056
  13        6D+2        0.00323   0.00000  -0.02298  -0.00849   0.00001
  14        6D-2       -0.00746   0.00001   0.02061  -0.02238   0.00002
  15 2   C  1S         -0.00845   0.00003  -0.00012   0.00297   0.00004
  16        2S          0.01976  -0.00006   0.00055  -0.01271  -0.00010
  17        3S          0.02668  -0.00012  -0.00028   0.00351  -0.00003
  18        4PX        -0.13266  -0.00019   0.21446   0.12003  -0.00012
  19        4PY         0.07698   0.00023   0.13547  -0.18392   0.00022
  20        4PZ        -0.00008   0.21562   0.00002   0.00025   0.31546
  21        5PX        -0.02796  -0.00009   0.08756   0.05121  -0.00016
  22        5PY         0.04643   0.00012   0.05549  -0.07887   0.00027
  23        5PZ        -0.00003   0.12846   0.00001   0.00012   0.25409
  24        6D 0       -0.00047   0.00000   0.00001  -0.00004   0.00000
  25        6D+1        0.00001  -0.00790  -0.00001   0.00001  -0.00145
  26        6D-1        0.00002   0.01371   0.00000  -0.00003   0.01378
  27        6D+2        0.01752   0.00000  -0.01729  -0.01737  -0.00001
  28        6D-2       -0.00583   0.00000   0.01177  -0.02805  -0.00001
  29 3   C  1S          0.00987  -0.00002  -0.00248  -0.00162  -0.00001
  30        2S         -0.02308   0.00005   0.01065   0.00692   0.00004
  31        3S         -0.03116   0.00008  -0.00306  -0.00179  -0.00009
  32        4PX         0.15543  -0.00016  -0.18462  -0.11880  -0.00017
  33        4PY        -0.07295   0.00005  -0.13705   0.21359   0.00004
  34        4PZ         0.00016   0.21556  -0.00006  -0.00013   0.20951
  35        5PX         0.06332  -0.00010  -0.07901  -0.05091  -0.00004
  36        5PY        -0.00110   0.00004  -0.05599   0.08731   0.00007
  37        5PZ         0.00005   0.12844  -0.00002  -0.00004   0.16875
  38        6D 0        0.00056  -0.00003   0.00004   0.00002   0.00001
  39        6D+1       -0.00001  -0.01583  -0.00002  -0.00001  -0.00841
  40        6D-1        0.00001  -0.00002   0.00000  -0.00003  -0.02290
  41        6D+2        0.00434   0.00002  -0.02777  -0.01785   0.00001
  42        6D-2        0.01719   0.00000   0.01126  -0.01758   0.00001
  43 4   C  1S          0.01833   0.00002   0.00262  -0.00137  -0.00001
  44        2S         -0.04289  -0.00003  -0.01126   0.00587   0.00002
  45        3S         -0.05774  -0.00006   0.00321  -0.00153   0.00014
  46        4PX         0.14100  -0.00018   0.19824   0.14488   0.00006
  47        4PY         0.25201   0.00013   0.11070  -0.20016  -0.00003
  48        4PZ        -0.00006   0.21554   0.00009   0.00021  -0.10626
  49        5PX         0.05869  -0.00010   0.08287   0.05825   0.00002
  50        5PY         0.10183   0.00008   0.04851  -0.08357  -0.00007
  51        5PZ        -0.00003   0.12843   0.00004   0.00009  -0.08558
  52        6D 0        0.00102   0.00002  -0.00004   0.00002   0.00003
  53        6D+1        0.00000  -0.00793  -0.00003   0.00001   0.02681
  54        6D-1        0.00001  -0.01370   0.00000  -0.00002  -0.01056
  55        6D+2       -0.00325   0.00001  -0.02293  -0.00851  -0.00001
  56        6D-2        0.00744   0.00000   0.02062  -0.02240   0.00004
  57 5   C  1S          0.00842   0.00001  -0.00017   0.00296   0.00000
  58        2S         -0.01972  -0.00001   0.00067  -0.01269   0.00001
  59        3S         -0.02647  -0.00003  -0.00007   0.00356  -0.00009
  60        4PX        -0.13302   0.00000  -0.21421  -0.11999   0.00006
  61        4PY         0.07729   0.00025  -0.13592   0.18393  -0.00032
  62        4PZ        -0.00009   0.21559   0.00013  -0.00019  -0.31540
  63        5PX        -0.02804  -0.00002  -0.08743  -0.05116   0.00003
  64        5PY         0.04645   0.00014  -0.05575   0.07891  -0.00020
  65        5PZ        -0.00004   0.12845   0.00007  -0.00008  -0.25404
  66        6D 0        0.00047   0.00003   0.00000  -0.00004  -0.00003
  67        6D+1        0.00000   0.00792  -0.00001   0.00002  -0.00150
  68        6D-1       -0.00001  -0.01370  -0.00001  -0.00002   0.01376
  69        6D+2       -0.01755   0.00001  -0.01728  -0.01732   0.00000
  70        6D-2        0.00580   0.00000   0.01178  -0.02808   0.00001
  71 6   C  1S         -0.00985   0.00001  -0.00250  -0.00158   0.00001
  72        2S          0.02305  -0.00001   0.01071   0.00682  -0.00003
  73        3S          0.03097   0.00000  -0.00294  -0.00197   0.00006
  74        4PX         0.15574  -0.00014   0.18488   0.11840  -0.00002
  75        4PY        -0.07313   0.00018   0.13714  -0.21349  -0.00010
  76        4PZ         0.00005   0.21561  -0.00005   0.00020  -0.20924
  77        5PX         0.06333  -0.00006   0.07915   0.05067   0.00006
  78        5PY        -0.00116   0.00010   0.05603  -0.08724  -0.00008
  79        5PZ         0.00000   0.12846  -0.00002   0.00009  -0.16853
  80        6D 0       -0.00055  -0.00001   0.00003   0.00003   0.00003
  81        6D+1        0.00001   0.01583  -0.00001   0.00001  -0.00840
  82        6D-1       -0.00001  -0.00001  -0.00002  -0.00002  -0.02287
  83        6D+2       -0.00438   0.00001  -0.02778  -0.01783   0.00003
  84        6D-2       -0.01720   0.00001   0.01131  -0.01755   0.00000
  85 7   H  1S         -0.22270   0.00001   0.19544  -0.10065   0.00002
  86        2S         -0.08141   0.00000   0.10275  -0.05294  -0.00001
  87        3PX        -0.00755   0.00000   0.00164  -0.00845   0.00000
  88        3PY        -0.01263   0.00000   0.01001  -0.00076   0.00000
  89        3PZ         0.00001   0.00722   0.00000   0.00000   0.00390
  90 8   H  1S         -0.10257  -0.00010  -0.01021   0.21959   0.00003
  91        2S         -0.03748  -0.00006  -0.00538   0.11547   0.00004
  92        3PX        -0.00025   0.00000   0.00700  -0.00501  -0.00001
  93        3PY        -0.00797   0.00000   0.00347   0.00942   0.00001
  94        3PZ         0.00001   0.00722   0.00000  -0.00001   0.01162
  95 9   H  1S          0.11990   0.00001  -0.18489  -0.11891  -0.00002
  96        2S          0.04382   0.00001  -0.09721  -0.06251  -0.00005
  97        3PX        -0.00793   0.00000   0.00898   0.00578   0.00000
  98        3PY        -0.00400   0.00000  -0.00421   0.00657   0.00000
  99        3PZ         0.00000   0.00722   0.00001   0.00000   0.00772
 100 10  H  1S          0.22271  -0.00003   0.19527  -0.10096   0.00005
 101        2S          0.08141  -0.00002   0.10266  -0.05308   0.00005
 102        3PX        -0.00755   0.00000  -0.00165   0.00846   0.00000
 103        3PY        -0.01264   0.00000  -0.01000   0.00078   0.00000
 104        3PZ         0.00000   0.00722   0.00000   0.00001  -0.00391
 105 11  H  1S          0.10301   0.00002  -0.01053   0.21959  -0.00005
 106        2S          0.03769   0.00000  -0.00553   0.11547  -0.00005
 107        3PX        -0.00024   0.00000  -0.00700   0.00502   0.00000
 108        3PY        -0.00800   0.00001  -0.00345  -0.00941  -0.00001
 109        3PZ         0.00001   0.00722   0.00000   0.00001  -0.01161
 110 12  H  1S         -0.12020   0.00010  -0.18509  -0.11863   0.00004
 111        2S         -0.04396   0.00005  -0.09730  -0.06239   0.00005
 112        3PX        -0.00794   0.00000  -0.00899  -0.00576   0.00000
 113        3PY        -0.00400   0.00001   0.00422  -0.00656   0.00000
 114        3PZ         0.00000   0.00722   0.00000   0.00001  -0.00771
                          21        22        23        24        25
                           O         V         V         V         V
     Eigenvalues --    -0.33411   0.13686   0.13691   0.17963   0.21876
   1 1   C  1S         -0.00001  -0.00002  -0.00004   0.03542  -0.00218
   2        2S          0.00002   0.00005   0.00014  -0.03141   0.00114
   3        3S          0.00007  -0.00002  -0.00028  -0.56560   0.06252
   4        4PX         0.00007   0.00003   0.00006   0.04795   0.00075
   5        4PY         0.00013   0.00014  -0.00003   0.08311  -0.01220
   6        4PZ         0.30303   0.29239  -0.11325  -0.00005   0.00000
   7        5PX         0.00003   0.00015  -0.00032   0.13876  -0.18170
   8        5PY         0.00013  -0.00001  -0.00045   0.24037   0.05647
   9        5PZ         0.24411   0.54268  -0.21019  -0.00008  -0.00017
  10        6D 0       -0.00002   0.00002   0.00002   0.00458  -0.00054
  11        6D+1       -0.00258   0.00714   0.03372   0.00000   0.00001
  12        6D-1        0.01553  -0.01606  -0.01485   0.00000   0.00000
  13        6D+2       -0.00001   0.00002   0.00000  -0.00431  -0.00333
  14        6D-2        0.00000   0.00000   0.00002   0.00746  -0.00130
  15 2   C  1S          0.00001  -0.00002   0.00004   0.03541  -0.03093
  16        2S         -0.00002   0.00004  -0.00010  -0.03136   0.01552
  17        3S         -0.00007   0.00029   0.00014  -0.56579   0.89737
  18        4PX        -0.00005   0.00004  -0.00014  -0.04795   0.07581
  19        4PY         0.00004  -0.00002   0.00023   0.08314  -0.12531
  20        4PZ         0.05943  -0.04789   0.30988  -0.00004   0.00017
  21        5PX        -0.00004   0.00026  -0.00056  -0.13846   0.22595
  22        5PY         0.00002   0.00010   0.00083   0.24021  -0.55732
  23        5PZ         0.04787  -0.08884   0.57523  -0.00027   0.00080
  24        6D 0        0.00000  -0.00001  -0.00001   0.00458  -0.00787
  25        6D+1       -0.02688  -0.03447   0.00025  -0.00001   0.00002
[...]
 102        3PX         0.00000   0.00000   0.00000   0.00000  -0.00001
 103        3PY         0.00000   0.00000   0.00000   0.00000  -0.00001
 104        3PZ         0.00000   0.00000   0.00000   0.00000   0.00000
 105 11  H  1S          0.00000   0.00000   0.00000   0.00000   0.00000
 106        2S          0.00003   0.00000   0.00000   0.00000  -0.00001
 107        3PX         0.00000   0.00000   0.00000   0.00000   0.00000
 108        3PY         0.00000   0.00000   0.00000   0.00000   0.00000
 109        3PZ         0.00000   0.00000   0.00000   0.00000   0.00000
 110 12  H  1S         -0.00001   0.00000   0.00000   0.00000   0.00000
 111        2S         -0.00014   0.00000   0.00000   0.00000   0.00000
 112        3PX         0.00000   0.00000   0.00000   0.00000   0.00000
 113        3PY         0.00000   0.00000   0.00000   0.00000   0.00000
 114        3PZ         0.00000   0.00000   0.00000   0.00000   0.00000
                          96        97        98        99       100
  96        2S          0.05551
  97        3PX         0.00000   0.00256
  98        3PY         0.00000   0.00000   0.00027
  99        3PZ         0.00000   0.00000   0.00000   0.00038
 100 10  H  1S         -0.00203   0.00000  -0.00001   0.00000   0.37912
 101        2S         -0.00389  -0.00004  -0.00011   0.00000   0.09387
 102        3PX        -0.00003   0.00000   0.00000   0.00000   0.00000
 103        3PY        -0.00012   0.00000   0.00000   0.00000   0.00000
 104        3PZ         0.00000   0.00000   0.00000   0.00000   0.00000
 105 11  H  1S         -0.00001   0.00000   0.00000   0.00000  -0.00014
 106        2S         -0.00014   0.00000   0.00000   0.00000  -0.00203
 107        3PX         0.00000   0.00000   0.00000   0.00000  -0.00002
 108        3PY         0.00000   0.00000   0.00000   0.00000   0.00000
 109        3PZ         0.00000   0.00000   0.00000   0.00000   0.00000
 110 12  H  1S          0.00000   0.00000   0.00000   0.00000   0.00000
 111        2S          0.00003   0.00000   0.00000   0.00000  -0.00001
 112        3PX         0.00000   0.00000   0.00000   0.00000   0.00000
 113        3PY         0.00000   0.00000   0.00000   0.00000   0.00000
 114        3PZ         0.00000   0.00000   0.00000   0.00000   0.00000
                         101       102       103       104       105
 101        2S          0.05550
 102        3PX         0.00000   0.00084
 103        3PY         0.00000   0.00000   0.00199
 104        3PZ         0.00000   0.00000   0.00000   0.00038
 105 11  H  1S         -0.00203  -0.00002   0.00000   0.00000   0.37910
 106        2S         -0.00389  -0.00016   0.00000   0.00000   0.09389
 107        3PX        -0.00016   0.00000   0.00000   0.00000   0.00000
 108        3PY         0.00000   0.00000   0.00000   0.00000   0.00000
 109        3PZ         0.00000   0.00000   0.00000   0.00000   0.00000
 110 12  H  1S         -0.00001   0.00000   0.00000   0.00000  -0.00014
 111        2S         -0.00014   0.00000   0.00000   0.00000  -0.00203
 112        3PX         0.00000   0.00000   0.00000   0.00000   0.00000
 113        3PY         0.00000   0.00000   0.00000   0.00000  -0.00001
 114        3PZ         0.00000   0.00000   0.00000   0.00000   0.00000
                         106       107       108       109       110
 106        2S          0.05552
 107        3PX         0.00000   0.00084
 108        3PY         0.00000   0.00000   0.00199
 109        3PZ         0.00000   0.00000   0.00000   0.00038
 110 12  H  1S         -0.00203  -0.00001  -0.00001   0.00000   0.37915
 111        2S         -0.00389  -0.00003  -0.00012   0.00000   0.09388
 112        3PX        -0.00004   0.00000   0.00000   0.00000   0.00000
 113        3PY        -0.00011   0.00000   0.00000   0.00000   0.00000
 114        3PZ         0.00000   0.00000   0.00000   0.00000   0.00000
                         111       112       113       114
 111        2S          0.05551
 112        3PX         0.00000   0.00256
 113        3PY         0.00000   0.00000   0.00027
 114        3PZ         0.00000   0.00000   0.00000   0.00038
     Gross orbital populations:
                           1
   1 1   C  1S          1.99866
   2        2S          0.66866
   3        3S          0.44131
   4        4PX         0.74514
   5        4PY         0.72515
   6        4PZ         0.52801
   7        5PX         0.19466
   8        5PY         0.20348
   9        5PZ         0.44581
  10        6D 0        0.00425
  11        6D+1        0.01277
  12        6D-1        0.00796
  13        6D+2        0.02579
  14        6D-2        0.02957
  15 2   C  1S          1.99866
  16        2S          0.66866
  17        3S          0.44125
  18        4PX         0.74514
  19        4PY         0.72516
  20        4PZ         0.52804
  21        5PX         0.19467
  22        5PY         0.20342
  23        5PZ         0.44579
  24        6D 0        0.00425
  25        6D+1        0.01278
  26        6D-1        0.00796
  27        6D+2        0.02580
  28        6D-2        0.02957
  29 3   C  1S          1.99866
  30        2S          0.66866
  31        3S          0.44140
  32        4PX         0.71501
  33        4PY         0.75518
  34        4PZ         0.52799
  35        5PX         0.20800
  36        5PY         0.19019
  37        5PZ         0.44584
  38        6D 0        0.00425
  39        6D+1        0.00555
  40        6D-1        0.01519
  41        6D+2        0.03146
  42        6D-2        0.02389
  43 4   C  1S          1.99866
  44        2S          0.66866
  45        3S          0.44143
  46        4PX         0.74520
  47        4PY         0.72495
  48        4PZ         0.52798
  49        5PX         0.19454
  50        5PY         0.20367
  51        5PZ         0.44585
  52        6D 0        0.00425
  53        6D+1        0.01278
  54        6D-1        0.00795
  55        6D+2        0.02576
  56        6D-2        0.02958
  57 5   C  1S          1.99866
  58        2S          0.66866
  59        3S          0.44135
  60        4PX         0.74521
  61        4PY         0.72501
  62        4PZ         0.52803
  63        5PX         0.19454
  64        5PY         0.20362
  65        5PZ         0.44581
  66        6D 0        0.00425
  67        6D+1        0.01279
  68        6D-1        0.00795
  69        6D+2        0.02577
  70        6D-2        0.02958
  71 6   C  1S          1.99866
  72        2S          0.66866
  73        3S          0.44129
  74        4PX         0.71506
  75        4PY         0.75524
  76        4PZ         0.52801
  77        5PX         0.20794
  78        5PY         0.19017
  79        5PZ         0.44581
  80        6D 0        0.00425
  81        6D+1        0.00555
  82        6D-1        0.01519
  83        6D+2        0.03147
  84        6D-2        0.02389
  85 7   H  1S          0.75262
  86        2S          0.18517
  87        3PX         0.00816
  88        3PY         0.01742
  89        3PZ         0.00543
  90 8   H  1S          0.75261
  91        2S          0.18518
  92        3PX         0.00816
  93        3PY         0.01743
  94        3PZ         0.00543
  95 9   H  1S          0.75258
  96        2S          0.18517
  97        3PX         0.02205
  98        3PY         0.00353
  99        3PZ         0.00543
 100 10  H  1S          0.75258
 101        2S          0.18516
 102        3PX         0.00817
 103        3PY         0.01742
 104        3PZ         0.00543
 105 11  H  1S          0.75255
 106        2S          0.18520
 107        3PX         0.00817
 108        3PY         0.01742
 109        3PZ         0.00543
 110 12  H  1S          0.75263
 111        2S          0.18516
 112        3PX         0.02205
 113        3PY         0.00353
 114        3PZ         0.00543
          Condensed to atoms (all electrons):
               1          2          3          4          5          6
     1  C    4.703189   0.554092  -0.052283  -0.036247  -0.052299   0.554412
     2  C    0.554092   4.703152   0.554384  -0.052303  -0.036236  -0.052298
     3  C   -0.052283   0.554384   4.703320   0.554045  -0.052298  -0.036238
     4  C   -0.036247  -0.052303   0.554045   4.703377   0.554338  -0.052286
     5  C   -0.052299  -0.036236  -0.052298   0.554338   4.703307   0.554085
     6  C    0.554412  -0.052298  -0.036238  -0.052286   0.554085   4.703146
     7  H    0.420557  -0.035729   0.005853  -0.000455   0.005852  -0.035726
     8  H   -0.035734   0.420551  -0.035737   0.005850  -0.000455   0.005855
     9  H    0.005850  -0.035718   0.420554  -0.035729   0.005850  -0.000455
    10  H   -0.000455   0.005852  -0.035723   0.420553  -0.035725   0.005846
    11  H    0.005854  -0.000456   0.005847  -0.035742   0.420547  -0.035726
    12  H   -0.035726   0.005852  -0.000455   0.005853  -0.035730   0.420557
               7          8          9         10         11         12
     1  C    0.420557  -0.035734   0.005850  -0.000455   0.005854  -0.035726
     2  C   -0.035729   0.420551  -0.035718   0.005852  -0.000456   0.005852
     3  C    0.005853  -0.035737   0.420554  -0.035723   0.005847  -0.000455
     4  C   -0.000455   0.005850  -0.035729   0.420553  -0.035742   0.005853
     5  C    0.005852  -0.000455   0.005850  -0.035725   0.420547  -0.035730
     6  C   -0.035726   0.005855  -0.000455   0.005846  -0.035726   0.420557
     7  H    0.625644  -0.008446  -0.000164   0.000036  -0.000165  -0.008445
     8  H   -0.008446   0.625664  -0.008445  -0.000165   0.000036  -0.000165
     9  H   -0.000164  -0.008445   0.625590  -0.008435  -0.000164   0.000036
    10  H    0.000036  -0.000165  -0.008435   0.625574  -0.008437  -0.000164
    11  H   -0.000165   0.000036  -0.000164  -0.008437   0.625606  -0.008446
    12  H   -0.008445  -0.000165   0.000036  -0.000164  -0.008446   0.625649
 Mulliken charges:
               1
     1  C   -0.031211
     2  C   -0.031144
     3  C   -0.031268
     4  C   -0.031254
     5  C   -0.031235
     6  C   -0.031173
     7  H    0.031189
     8  H    0.031192
     9  H    0.031232
    10  H    0.031241
    11  H    0.031244
    12  H    0.031186
 Sum of Mulliken charges =   0.00000
 Mulliken charges with hydrogens summed into heavy atoms:
               1
     1  C   -0.000022
     2  C    0.000048
     3  C   -0.000036
     4  C   -0.000012
     5  C    0.000010
     6  C    0.000013
 Electronic spatial extent (au):  <R**2>=            776.3617
 Charge=              0.0000 electrons
 Dipole moment (field-independent basis, Debye):
    X=             -0.0001    Y=             -0.0002    Z=              0.0008  Tot=              0.0008
 Quadrupole moment (field-independent basis, Debye-Ang):
   XX=            -31.8062   YY=            -31.8086   ZZ=            -40.5181
   XY=              0.0006   XZ=              0.0039   YZ=             -0.0050
 Traceless Quadrupole moment (field-independent basis, Debye-Ang):
   XX=              2.9047   YY=              2.9024   ZZ=             -5.8071
   XY=              0.0006   XZ=              0.0039   YZ=             -0.0050
 Octapole moment (field-independent basis, Debye-Ang**2):
  XXX=             -4.6738  YYY=           -138.3105  ZZZ=              0.1247  XYY=             -1.5566
  XXY=            -46.0909  XXZ=              0.0379  XZZ=             -1.9855  YZZ=            -58.7253
  YYZ=              0.0180  XYZ=              0.0063
 Hexadecapole moment (field-independent basis, Debye-Ang**3):
 XXXX=           -271.9588 YYYY=           -672.4471 ZZZZ=            -46.5456 XXXY=             -6.7677
 XXXZ=             -0.0090 YYYX=             -6.7649 YYYZ=              0.1568 ZZZX=             -0.0301
 ZZZY=              0.2687 XXYY=           -157.3674 XXZZ=            -63.7530 YYZZ=           -148.7688
 XXYZ=              0.0700 YYXZ=              0.0113 ZZXY=             -2.8768
 N-N= 2.030307491037D+02 E-N=-9.428173835847D+02  KE= 2.303367688325D+02
 Orbital energies and kinetic energies (alpha):
                                 1                 2
   1         O               -11.241567         16.015917
   2         O               -11.241018         16.021646
   3         O               -11.241010         16.021641
   4         O               -11.239828         16.032614
   5         O               -11.239817         16.032614
   6         O               -11.239242         16.037774
   7         O                -1.148128          1.460930
   8         O                -1.011733          1.571101
   9         O                -1.011685          1.570937
  10         O                -0.818836          1.429319
  11         O                -0.818780          1.429154
  12         O                -0.701204          0.904190
  13         O                -0.634813          1.233861
  14         O                -0.615662          1.447833
  15         O                -0.581377          1.159127
  16         O                -0.581358          1.159143
  17         O                -0.499612          0.876292
  18         O                -0.488706          1.350596
  19         O                -0.488612          1.350565
  20         O                -0.334167          1.031594
  21         O                -0.334114          1.031537
  22         V                 0.136855          1.145489
  23         V                 0.136915          1.145437
  24         V                 0.179625          0.615407
  25         V                 0.218758          0.579222
  26         V                 0.218766          0.579204
  27         V                 0.254874          0.673232
  28         V                 0.254884          0.673224
  29         V                 0.270516          0.627571
  30         V                 0.350509          1.315861
  31         V                 0.436141          1.202881
  32         V                 0.436179          1.202765
  33         V                 0.467767          1.222008
  34         V                 0.467836          1.221779
  35         V                 0.584043          1.289478
  36         V                 0.585148          1.360173
  37         V                 0.666691          2.432319
  38         V                 0.679877          1.839988
  39         V                 0.711405          1.594191
  40         V                 0.731110          1.824118
  41         V                 0.731138          1.824225
  42         V                 0.735949          1.864039
  43         V                 0.736003          1.863686
  44         V                 0.737969          2.190709
  45         V                 0.738037          2.191140
  46         V                 0.742666          1.340768
  47         V                 0.822095          2.114083
  48         V                 0.822121          2.114224
  49         V                 0.848840          1.853363
  50         V                 0.848894          1.853544
  51         V                 0.882242          2.319718
  52         V                 0.882285          2.319904
  53         V                 0.909132          2.350378
  54         V                 0.987486          2.673045
  55         V                 0.995834          1.993630
  56         V                 1.047654          1.650817
  57         V                 1.106022          2.227351
  58         V                 1.106091          2.227376
  59         V                 1.125228          2.891086
  60         V                 1.151148          1.798131
  61         V                 1.205787          1.919184
  62         V                 1.205810          1.919185
  63         V                 1.243019          2.012562
  64         V                 1.243069          2.015907
  65         V                 1.243812          1.849077
  66         V                 1.243818          1.849848
  67         V                 1.304958          2.506914
  68         V                 1.318342          1.962150
  69         V                 1.318364          1.962137
  70         V                 1.461574          2.141275
  71         V                 1.507968          2.146589
  72         V                 1.507989          2.146586
  73         V                 1.721458          2.470144
  74         V                 1.739691          2.337378
  75         V                 1.739719          2.337429
  76         V                 1.763218          2.190517
  77         V                 1.806175          2.577445
  78         V                 1.869891          2.666343
  79         V                 1.869921          2.666459
  80         V                 1.884902          2.768064
  81         V                 1.884931          2.768172
  82         V                 1.889861          2.317044
  83         V                 1.944430          2.376504
  84         V                 1.944532          2.376553
  85         V                 1.958153          2.558238
  86         V                 1.958253          2.558334
  87         V                 1.963448          2.672566
  88         V                 2.087019          2.830156
  89         V                 2.087074          2.830288
  90         V                 2.106624          2.591262
  91         V                 2.146485          3.601067
  92         V                 2.146508          3.601210
  93         V                 2.159630          3.639899
  94         V                 2.159778          3.640659
  95         V                 2.166657          3.106097
  96         V                 2.253903          2.742130
  97         V                 2.253958          2.742190
  98         V                 2.264292          3.091642
  99         V                 2.264307          3.091700
 100         V                 2.307500          3.540798
 101         V                 2.499109          3.113825
 102         V                 2.545916          3.129712
 103         V                 2.670745          4.173971
 104         V                 2.748925          4.047360
 105         V                 2.749045          4.047423
 106         V                 2.755541          4.481363
 107         V                 2.755563          4.481591
 108         V                 2.943555          3.882491
 109         V                 2.943678          3.882654
 110         V                 2.998325          4.342213
 111         V                 3.111974          4.422693
 112         V                 3.244685          4.600047
 113         V                 3.244734          4.600103
 114         V                 3.996909          5.245584
 Total kinetic energy from orbitals= 2.303367688325D+02
 Unable to Open any file for archive entry.
 1\1\GINC-MEDUSA\SP\RTD-Full\CC-pVDZ\C6H6\DBWY\22-Sep-2015\0\\# hf/cc-p
 VDZ gfinput pop=full nosymm td(full,nstates=12,50-50)\\Benzene cc-pVDZ
 \\0,1\C,0,-0.64863549,0.24130784,-0.00045\C,0,0.74652451,0.24130784,-0
 .00045\C,0,1.44406251,1.44905884,-0.00045\C,0,0.74640851,2.65756784,-0
 .001649\C,0,-0.64841649,2.65748984,-0.002128\C,0,-1.34601749,1.4492838
 4,-0.001132\H,0,-1.19839449,-0.71100916,0.\H,0,1.29603251,-0.71120516,
 0.000865\H,0,2.54374251,1.44913884,0.000184\H,0,1.29660851,3.60971084,
 -0.001708\H,0,-1.19853849,3.60977084,-0.003081\H,0,-2.44562149,1.44946
 684,-0.001312\\Version=ES64L-GDVRevI.01+\HF=-230.7208252\MP2=-231.5208
 617\RMSD=9.100e-09\PG=C01 [X(C6H6)]\\@
 The archive entry for this job was punched.


 ERWIN WITH HIS PSI CAN DO
 CALCULATIONS QUITE A FEW.
 BUT ONE THING HAS NOT BEEN SEEN
 JUST WHAT DOES PSI REALLY MEAN.
 -- WALTER HUCKEL, TRANS. BY FELIX BLOCH
 Job cpu time:       0 days  0 hours  0 minutes 20.5 seconds.
 Elapsed time:       0 days  0 hours  0 minutes 20.3 seconds.
 File lengths (MBytes):  RWF=    423 Int=      0 D2E=      0 Chk=     14 Scr=      1
 Normal termination of Gaussian DV at Tue Sep 22 15:17:19 2015.
