 Entering Gaussian System, Link 0=gdv
 Input=h2o_ccpVDZ_TD.com
 Output=h2o_ccpVDZ_TD.log
 Initial command:
 /home/gauss/gdvi01p/gdv/l1.exe "/home/GauScr/Gau-2333.inp" -scrdir="/home/GauScr/"
 Entering Link 1 = /home/gauss/gdvi01p/gdv/l1.exe PID=      2334.
  
 Copyright (c) 1988,1990,1992,1993,1995,1998,2003,2009,2014,
            Gaussian, Inc.  All Rights Reserved.
  
 This is the private, development version of
 the Gaussian(R) DV system of programs. It is based on
 the Gaussian(R) 09 system (copyright 2009, Gaussian, Inc.),
 the Gaussian(R) 03 system (copyright 2003, Gaussian, Inc.),
 the Gaussian(R) 98 system (copyright 1998, Gaussian, Inc.),
 the Gaussian(R) 94 system (copyright 1995, Gaussian, Inc.),
 the Gaussian 92(TM) system (copyright 1992, Gaussian, Inc.),
 the Gaussian 90(TM) system (copyright 1990, Gaussian, Inc.),
 the Gaussian 88(TM) system (copyright 1988, Gaussian, Inc.),
 the Gaussian 86(TM) system (copyright 1986, Carnegie Mellon
 University), and the Gaussian 82(TM) system (copyright 1983,
 Carnegie Mellon University). Gaussian is a federally registered
 trademark of Gaussian, Inc.
  
 This software contains proprietary and confidential information,
 including trade secrets, belonging to Gaussian, Inc.
  
 This software is provided under written license and may be
 used, copied, transmitted, or stored only in accord with that
 written license.
  
 The following legend is applicable only to US Government
 contracts under FAR:
  
                    RESTRICTED RIGHTS LEGEND
  
 Use, reproduction and disclosure by the US Government is
 subject to restrictions as set forth in subparagraphs (a)
 and (c) of the Commercial Computer Software - Restricted
 Rights clause in FAR 52.227-19.
  
 Gaussian, Inc.
 340 Quinnipiac St., Bldg. 40, Wallingford CT 06492
  
  
 ---------------------------------------------------------------
 Warning -- This program may not be used in any manner that
 competes with the business of Gaussian, Inc. or will provide
 assistance to any competitor of Gaussian, Inc.  The licensee
 of this program is prohibited from giving any competitor of
 Gaussian, Inc. access to this program.  By using this program,
 the user acknowledges that Gaussian, Inc. is engaged in the
 business of creating and licensing software in the field of
 computational chemistry and represents and warrants to the
 licensee that it is not a competitor of Gaussian, Inc. and that
 it will not use this program in any manner prohibited above.
 ---------------------------------------------------------------
  

 Cite this work as:
 Gaussian Development Version, Revision I.01+,
 M. J. Frisch, G. W. Trucks, H. B. Schlegel, G. E. Scuseria, 
 M. A. Robb, J. R. Cheeseman, G. Scalmani, V. Barone, B. Mennucci, 
 G. A. Petersson, H. Nakatsuji, M. Caricato, X. Li, H. P. Hratchian, 
 A. F. Izmaylov, J. Bloino, B. G. Janesko, F. Lipparini, G. Zheng, 
 J. L. Sonnenberg, W. Liang, M. Hada, M. Ehara, K. Toyota, R. Fukuda, 
 J. Hasegawa, M. Ishida, T. Nakajima, Y. Honda, O. Kitao, H. Nakai, 
 T. Vreven, J. A. Montgomery, Jr., J. E. Peralta, F. Ogliaro, 
 M. Bearpark, J. J. Heyd, E. Brothers, K. N. Kudin, V. N. Staroverov, 
 T. Keith, R. Kobayashi, J. Normand, K. Raghavachari, A. Rendell, 
 J. C. Burant, S. S. Iyengar, J. Tomasi, M. Cossi, N. Rega, 
 J. M. Millam, M. Klene, J. E. Knox, J. B. Cross, V. Bakken, 
 C. Adamo, J. Jaramillo, R. Gomperts, R. E. Stratmann, O. Yazyev, 
 A. J. Austin, R. Cammi, C. Pomelli, J. W. Ochterski, R. L. Martin, 
 K. Morokuma, V. G. Zakrzewski, G. A. Voth, P. Salvador, 
 J. J. Dannenberg, S. Dapprich, P. V. Parandekar, N. J. Mayhall, 
 A. D. Daniels, O. Farkas, J. B. Foresman, J. V. Ortiz, 
 J. Cioslowski, and D. J. Fox, Gaussian, Inc., Wallingford CT, 2010.
 
 *******************************************
 Gaussian DV:  ES64L-GDVRevI.01+ 11-Sep-2014
                 24-Sep-2015 
 *******************************************
 ------------------------------------------------------------------
 #p hf/cc-pVDZ gfinput pop=full nosymm td(full,nstates=12,50-50) 6D
 ------------------------------------------------------------------
 1/38=1,172=1/1;
 2/12=2,15=1,17=6,18=5,40=1/2;
 3/5=16,8=2,11=9,24=10,25=1,30=1/1,2,8,3;
 4//1;
 5/5=2,38=5/2;
 8/6=1,10=90,108=12/1,4;
 9/41=12,42=3,48=2,70=2/14;
 6/7=3/1;
 99/5=1,9=1/99;
 Leave Link    1 at Thu Sep 24 12:03:06 2015, MaxMem=           0 cpu:               0.0 elap:               0.0
 (Enter /home/gauss/gdvi01p/gdv/l101.exe)
 -------------
 Water cc-pVDZ
 -------------
 Symbolic Z-matrix:
 Charge =  0 Multiplicity = 1
 O                     0.       -0.07579   0. 
 H                     0.86681   0.60144   0. 
 H                    -0.86681   0.60144   0. 
 
 ITRead=  0  0  0
 MicOpt= -1 -1 -1
 NAtoms=      3 NQM=        3 NQMF=       0 NMMI=      0 NMMIF=      0
                NMic=       0 NMicF=      0.
                    Isotopes and Nuclear Properties:
 (Nuclear quadrupole moments (NQMom) in fm**2, nuclear magnetic moments (NMagM)
  in nuclear magnetons)

  Atom         1           2           3
 IAtWgt=          16           1           1
 AtmWgt=  15.9949146   1.0078250   1.0078250
 NucSpn=           0           1           1
 AtZEff=   0.0000000   0.0000000   0.0000000
 NQMom=    0.0000000   0.0000000   0.0000000
 NMagM=    0.0000000   2.7928460   2.7928460
 AtZNuc=   8.0000000   1.0000000   1.0000000
 Leave Link  101 at Thu Sep 24 12:03:06 2015, MaxMem=    33554432 cpu:               0.1 elap:               0.1
 (Enter /home/gauss/gdvi01p/gdv/l202.exe)
                          Input orientation:                          
 ---------------------------------------------------------------------
 Center     Atomic      Atomic             Coordinates (Angstroms)
 Number     Number       Type             X           Y           Z
 ---------------------------------------------------------------------
      1          8           0        0.000000   -0.075792    0.000000
      2          1           0        0.866812    0.601436    0.000000
      3          1           0       -0.866812    0.601436    0.000000
 ---------------------------------------------------------------------
                    Distance matrix (angstroms):
                    1          2          3
     1  O    0.000000
     2  H    1.100000   0.000000
     3  H    1.100000   1.733624   0.000000
 Symmetry turned off by external request.
 Stoichiometry    H2O
 Framework group  C2V[C2(O),SGV(H2)]
 Deg. of freedom     2
 Full point group                 C2V     NOp   4
 Rotational constants (GHZ):    615.5709784    333.6970768    216.3922350
 Leave Link  202 at Thu Sep 24 12:03:06 2015, MaxMem=    33554432 cpu:               0.0 elap:               0.0
 (Enter /home/gauss/gdvi01p/gdv/l301.exe)
 Standard basis: CC-pVDZ (6D, 7F)
 Ernie: Thresh=  0.10000D-02 Tol=  0.10000D-05 Strict=F.
 Ernie:  2 primitive shells out of 32 were deleted.
 AO basis set in the form of general basis input (Overlap normalization):
      1 0
 S   7 1.00       0.000000000000
      0.1172000000D+05  0.7118644339D-03
      0.1759000000D+04  0.5485201992D-02
      0.4008000000D+03  0.2790992963D-01
      0.1137000000D+03  0.1051332075D+00
      0.3703000000D+02  0.2840024898D+00
      0.1327000000D+02  0.4516739459D+00
      0.5025000000D+01  0.2732081255D+00
 S   7 1.00       0.000000000000
      0.1172000000D+05  0.7690300460D-05
      0.4008000000D+03  0.3134845790D-03
      0.1137000000D+03 -0.2966148530D-02
      0.3703000000D+02 -0.1087535430D-01
      0.1327000000D+02 -0.1207538168D+00
      0.5025000000D+01 -0.1062752639D+00
      0.1013000000D+01  0.1095975478D+01
 S   1 1.00       0.000000000000
      0.3023000000D+00  0.1000000000D+01
 P   3 1.00       0.000000000000
      0.1770000000D+02  0.6267916628D-01
      0.3854000000D+01  0.3335365659D+00
      0.1046000000D+01  0.7412396416D+00
 P   1 1.00       0.000000000000
      0.2753000000D+00  0.1000000000D+01
 D   1 1.00       0.000000000000
      0.1185000000D+01  0.1000000000D+01
 ****
      2 0
 S   3 1.00       0.000000000000
      0.1301000000D+02  0.3349872639D-01
      0.1962000000D+01  0.2348008012D+00
      0.4446000000D+00  0.8136829579D+00
 S   1 1.00       0.000000000000
      0.1220000000D+00  0.1000000000D+01
 P   1 1.00       0.000000000000
      0.7270000000D+00  0.1000000000D+01
 ****
      3 0
 S   3 1.00       0.000000000000
      0.1301000000D+02  0.3349872639D-01
      0.1962000000D+01  0.2348008012D+00
      0.4446000000D+00  0.8136829579D+00
 S   1 1.00       0.000000000000
      0.1220000000D+00  0.1000000000D+01
 P   1 1.00       0.000000000000
      0.7270000000D+00  0.1000000000D+01
 ****

    25 basis functions,    47 primitive gaussians,    25 cartesian basis functions
     5 alpha electrons        5 beta electrons
       nuclear repulsion energy         8.0023664856 Hartrees.
 IExCor=    0 DFT=F Ex=HF Corr=None ExCW=0 ScaHFX=  1.000000
 ScaDFX=  1.000000  1.000000  1.000000  1.000000 ScalE2=  1.000000  1.000000
 IRadAn=      0 IRanWt=     -1 IRanGd=            0 ICorTp=0 IEmpDi=  4
 NAtoms=    3 NActive=    3 NUniq=    3 SFac= 1.00D+00 NAtFMM=   60 NAOKFM=F Big=F
 Integral buffers will be    131072 words long.
 Raffenetti 1 integral format.
 Two-electron integral symmetry is turned off.
 Leave Link  301 at Thu Sep 24 12:03:06 2015, MaxMem=    33554432 cpu:               0.0 elap:               0.1
 (Enter /home/gauss/gdvi01p/gdv/l302.exe)
 NPDir=0 NMtPBC=     1 NCelOv=     1 NCel=       1 NClECP=     1 NCelD=      1
         NCelK=      1 NCelE2=     1 NClLst=     1 CellRange=     0.0.
 One-electron integrals computed using PRISM.
 One-electron integral symmetry used in STVInt
 NBasis=    25 RedAO= T EigKep=  3.91D-02  NBF=    25
 NBsUse=    25 1.00D-06 EigRej= -1.00D+00 NBFU=    25
 Leave Link  302 at Thu Sep 24 12:03:06 2015, MaxMem=    33554432 cpu:               0.1 elap:               0.1
 (Enter /home/gauss/gdvi01p/gdv/l308.exe)
 Leave Link  308 at Thu Sep 24 12:03:06 2015, MaxMem=    33554432 cpu:               0.0 elap:               0.0
 (Enter /home/gauss/gdvi01p/gdv/l303.exe)
 DipDrv:  MaxL=1.
 Leave Link  303 at Thu Sep 24 12:03:06 2015, MaxMem=    33554432 cpu:               0.0 elap:               0.0
 (Enter /home/gauss/gdvi01p/gdv/l401.exe)
 ExpMin= 1.22D-01 ExpMax= 1.17D+04 ExpMxC= 4.01D+02 IAcc=1 IRadAn=         1 AccDes= 0.00D+00
 Harris functional with IExCor=  205 and IRadAn=       1 diagonalized for initial guess.
 HarFok:  IExCor=  205 AccDes= 0.00D+00 IRadAn=         1 IDoV= 1 UseB2=F ITyADJ=14
 ICtDFT=  3500011 ScaDFX=  1.000000  1.000000  1.000000  1.000000
 FoFCou: FMM=F IPFlag=           0 FMFlag=      100000 FMFlg1=           0
         NFxFlg=           0 DoJE=T BraDBF=F KetDBF=T FulRan=T
         wScrn=  0.000000 ICntrl=       500 IOpCl=  0 I1Cent=   200000004 NGrid=           0
         NMat0=    1 NMatS0=      1 NMatT0=    0 NMatD0=    1 NMtDS0=    0 NMtDT0=    0
 Symmetry not used in FoFCou.
 Harris En= -76.0876687667386    
 JPrj=0 DoOrth=F DoCkMO=F.
 Leave Link  401 at Thu Sep 24 12:03:06 2015, MaxMem=    33554432 cpu:               0.1 elap:               0.1
 (Enter /home/gauss/gdvi01p/gdv/l502.exe)
 Keep R1 ints in memory in canonical form, NReq=884894.
 FoFCou: FMM=F IPFlag=           0 FMFlag=           0 FMFlg1=           0
         NFxFlg=           0 DoJE=F BraDBF=F KetDBF=F FulRan=T
         wScrn=  0.000000 ICntrl=       600 IOpCl=  0 I1Cent=           0 NGrid=           0
         NMat0=    1 NMatS0=    325 NMatT0=    0 NMatD0=    1 NMtDS0=    0 NMtDT0=    0
 Symmetry not used in FoFCou.
 Two-electron integral symmetry not used.
 Closed shell SCF:
 Using DIIS extrapolation, IDIIS=  1040.
 NGot=    33554432 LenX=    33499679 LenY=    33498613
 Requested convergence on RMS density matrix=1.00D-08 within 128 cycles.
 Requested convergence on MAX density matrix=1.00D-06.
 Requested convergence on             energy=1.00D-06.
 No special actions if energy rises.

 Cycle   1  Pass 1  IDiag  1:
 E= -75.9081697665012    
 DIIS: error= 7.47D-02 at cycle   1 NSaved=   1.
 NSaved= 1 IEnMin= 1 EnMin= -75.9081697665012     IErMin= 1 ErrMin= 7.47D-02
 ErrMax= 7.47D-02  0.00D+00 EMaxC= 1.00D-01 BMatC= 1.39D-01 BMatP= 1.39D-01
 IDIUse=3 WtCom= 2.53D-01 WtEn= 7.47D-01
 Coeff-Com:  0.100D+01
 Coeff-En:   0.100D+01
 Coeff:      0.100D+01
 Gap=     0.518 Goal=   None    Shift=    0.000
 GapD=    0.518 DampG=2.000 DampE=0.500 DampFc=1.0000 IDamp=-1.
 RMSDP=1.14D-02 MaxDP=1.18D-01              OVMax= 1.44D-01

 Cycle   2  Pass 1  IDiag  1:
 E= -75.9578170545368     Delta-E=       -0.049647288036 Rises=F Damp=F
 DIIS: error= 3.74D-02 at cycle   2 NSaved=   2.
 NSaved= 2 IEnMin= 2 EnMin= -75.9578170545368     IErMin= 2 ErrMin= 3.74D-02
 ErrMax= 3.74D-02  0.00D+00 EMaxC= 1.00D-01 BMatC= 4.87D-02 BMatP= 1.39D-01
 IDIUse=3 WtCom= 6.26D-01 WtEn= 3.74D-01
 Coeff-Com:  0.348D+00 0.652D+00
 Coeff-En:   0.178D+00 0.822D+00
 Coeff:      0.284D+00 0.716D+00
 Gap=     0.655 Goal=   None    Shift=    0.000
 RMSDP=5.63D-03 MaxDP=5.88D-02 DE=-4.96D-02 OVMax= 5.61D-02

 Cycle   3  Pass 1  IDiag  1:
 E= -75.9887646469681     Delta-E=       -0.030947592431 Rises=F Damp=F
 DIIS: error= 8.02D-03 at cycle   3 NSaved=   3.
 NSaved= 3 IEnMin= 3 EnMin= -75.9887646469681     IErMin= 3 ErrMin= 8.02D-03
 ErrMax= 8.02D-03  0.00D+00 EMaxC= 1.00D-01 BMatC= 1.70D-03 BMatP= 4.87D-02
 IDIUse=3 WtCom= 9.20D-01 WtEn= 8.02D-02
 Coeff-Com: -0.289D-01 0.126D+00 0.903D+00
 Coeff-En:   0.000D+00 0.000D+00 0.100D+01
 Coeff:     -0.265D-01 0.116D+00 0.910D+00
 Gap=     0.637 Goal=   None    Shift=    0.000
 RMSDP=9.83D-04 MaxDP=1.11D-02 DE=-3.09D-02 OVMax= 1.39D-02

 Cycle   4  Pass 1  IDiag  1:
 E= -75.9901424775053     Delta-E=       -0.001377830537 Rises=F Damp=F
 DIIS: error= 1.26D-03 at cycle   4 NSaved=   4.
 NSaved= 4 IEnMin= 4 EnMin= -75.9901424775053     IErMin= 4 ErrMin= 1.26D-03
 ErrMax= 1.26D-03  0.00D+00 EMaxC= 1.00D-01 BMatC= 2.86D-05 BMatP= 1.70D-03
 IDIUse=3 WtCom= 9.87D-01 WtEn= 1.26D-02
 Coeff-Com:  0.704D-02-0.662D-01-0.280D+00 0.134D+01
 Coeff-En:   0.000D+00 0.000D+00 0.000D+00 0.100D+01
 Coeff:      0.695D-02-0.653D-01-0.276D+00 0.133D+01
 Gap=     0.642 Goal=   None    Shift=    0.000
 RMSDP=2.10D-04 MaxDP=2.84D-03 DE=-1.38D-03 OVMax= 2.39D-03

 Cycle   5  Pass 1  IDiag  1:
 E= -75.9901775922143     Delta-E=       -0.000035114709 Rises=F Damp=F
 DIIS: error= 1.78D-04 at cycle   5 NSaved=   5.
 NSaved= 5 IEnMin= 5 EnMin= -75.9901775922143     IErMin= 5 ErrMin= 1.78D-04
 ErrMax= 1.78D-04  0.00D+00 EMaxC= 1.00D-01 BMatC= 5.06D-07 BMatP= 2.86D-05
 IDIUse=3 WtCom= 9.98D-01 WtEn= 1.78D-03
 Coeff-Com:  0.540D-03 0.153D-02-0.187D-02-0.161D+00 0.116D+01
 Coeff-En:   0.000D+00 0.000D+00 0.000D+00 0.000D+00 0.100D+01
 Coeff:      0.539D-03 0.153D-02-0.187D-02-0.160D+00 0.116D+01
 Gap=     0.642 Goal=   None    Shift=    0.000
 RMSDP=4.40D-05 MaxDP=5.22D-04 DE=-3.51D-05 OVMax= 5.69D-04

 Cycle   6  Pass 1  IDiag  1:
 E= -75.9901786933632     Delta-E=       -0.000001101149 Rises=F Damp=F
 DIIS: error= 3.33D-05 at cycle   6 NSaved=   6.
 NSaved= 6 IEnMin= 6 EnMin= -75.9901786933632     IErMin= 6 ErrMin= 3.33D-05
 ErrMax= 3.33D-05  0.00D+00 EMaxC= 1.00D-01 BMatC= 1.93D-08 BMatP= 5.06D-07
 IDIUse=1 WtCom= 1.00D+00 WtEn= 0.00D+00
 Coeff-Com: -0.344D-03 0.202D-02 0.107D-01-0.178D-01-0.274D+00 0.128D+01
 Coeff:     -0.344D-03 0.202D-02 0.107D-01-0.178D-01-0.274D+00 0.128D+01
 Gap=     0.642 Goal=   None    Shift=    0.000
 RMSDP=1.17D-05 MaxDP=1.08D-04 DE=-1.10D-06 OVMax= 1.65D-04

 Cycle   7  Pass 1  IDiag  1:
 E= -75.9901787459147     Delta-E=       -0.000000052551 Rises=F Damp=F
 DIIS: error= 7.20D-06 at cycle   7 NSaved=   7.
 NSaved= 7 IEnMin= 7 EnMin= -75.9901787459147     IErMin= 7 ErrMin= 7.20D-06
 ErrMax= 7.20D-06  0.00D+00 EMaxC= 1.00D-01 BMatC= 9.28D-10 BMatP= 1.93D-08
 IDIUse=1 WtCom= 1.00D+00 WtEn= 0.00D+00
 Coeff-Com:  0.157D-03-0.110D-02-0.555D-02 0.148D-01 0.110D+00-0.644D+00
 Coeff-Com:  0.153D+01
 Coeff:      0.157D-03-0.110D-02-0.555D-02 0.148D-01 0.110D+00-0.644D+00
 Coeff:      0.153D+01
 Gap=     0.642 Goal=   None    Shift=    0.000
 RMSDP=2.44D-06 MaxDP=2.74D-05 DE=-5.26D-08 OVMax= 3.87D-05

 Cycle   8  Pass 1  IDiag  1:
 E= -75.9901787490530     Delta-E=       -0.000000003138 Rises=F Damp=F
 DIIS: error= 1.65D-06 at cycle   8 NSaved=   8.
 NSaved= 8 IEnMin= 8 EnMin= -75.9901787490530     IErMin= 8 ErrMin= 1.65D-06
 ErrMax= 1.65D-06  0.00D+00 EMaxC= 1.00D-01 BMatC= 5.05D-11 BMatP= 9.28D-10
 IDIUse=1 WtCom= 1.00D+00 WtEn= 0.00D+00
 Coeff-Com: -0.278D-04 0.234D-03 0.117D-02-0.453D-02-0.135D-01 0.115D+00
 Coeff-Com: -0.484D+00 0.139D+01
 Coeff:     -0.278D-04 0.234D-03 0.117D-02-0.453D-02-0.135D-01 0.115D+00
 Coeff:     -0.484D+00 0.139D+01
 Gap=     0.642 Goal=   None    Shift=    0.000
 RMSDP=6.34D-07 MaxDP=5.34D-06 DE=-3.14D-09 OVMax= 1.01D-05

 Cycle   9  Pass 1  IDiag  1:
 E= -75.9901787492202     Delta-E=       -0.000000000167 Rises=F Damp=F
 DIIS: error= 2.35D-07 at cycle   9 NSaved=   9.
 NSaved= 9 IEnMin= 9 EnMin= -75.9901787492202     IErMin= 9 ErrMin= 2.35D-07
 ErrMax= 2.35D-07  0.00D+00 EMaxC= 1.00D-01 BMatC= 6.59D-13 BMatP= 5.05D-11
 IDIUse=1 WtCom= 1.00D+00 WtEn= 0.00D+00
 Coeff-Com:  0.253D-05-0.257D-04-0.136D-03 0.657D-03 0.102D-02-0.131D-01
 Coeff-Com:  0.820D-01-0.361D+00 0.129D+01
 Coeff:      0.253D-05-0.257D-04-0.136D-03 0.657D-03 0.102D-02-0.131D-01
 Coeff:      0.820D-01-0.361D+00 0.129D+01
 Gap=     0.642 Goal=   None    Shift=    0.000
 RMSDP=7.90D-08 MaxDP=5.17D-07 DE=-1.67D-10 OVMax= 1.26D-06

 Cycle  10  Pass 1  IDiag  1:
 E= -75.9901787492223     Delta-E=       -0.000000000002 Rises=F Damp=F
 DIIS: error= 2.06D-08 at cycle  10 NSaved=  10.
 NSaved=10 IEnMin=10 EnMin= -75.9901787492223     IErMin=10 ErrMin= 2.06D-08
 ErrMax= 2.06D-08  0.00D+00 EMaxC= 1.00D-01 BMatC= 7.43D-15 BMatP= 6.59D-13
 IDIUse=1 WtCom= 1.00D+00 WtEn= 0.00D+00
 Coeff-Com: -0.213D-06 0.294D-05 0.170D-04-0.103D-03-0.476D-04 0.160D-02
 Coeff-Com: -0.128D-01 0.616D-01-0.265D+00 0.121D+01
 Coeff:     -0.213D-06 0.294D-05 0.170D-04-0.103D-03-0.476D-04 0.160D-02
 Coeff:     -0.128D-01 0.616D-01-0.265D+00 0.121D+01
 Gap=     0.642 Goal=   None    Shift=    0.000
 RMSDP=6.58D-09 MaxDP=4.78D-08 DE=-2.06D-12 OVMax= 9.09D-08

 SCF Done:  E(RHF) =  -75.9901787492     A.U. after   10 cycles
            NFock= 10  Conv=0.66D-08     -V/T= 2.0062
 KE= 7.552488813210D+01 PE=-1.964836464046D+02 EE= 3.696621303765D+01
 Leave Link  502 at Thu Sep 24 12:03:06 2015, MaxMem=    33554432 cpu:               0.1 elap:               0.1
 (Enter /home/gauss/gdvi01p/gdv/l801.exe)
 Range of M.O.s used for correlation:     1    25
 NBasis=    25 NAE=     5 NBE=     5 NFC=     0 NFV=     0
 NROrb=     25 NOA=     5 NOB=     5 NVA=    20 NVB=    20
 Leave Link  801 at Thu Sep 24 12:03:06 2015, MaxMem=    33554432 cpu:               0.0 elap:               0.0
 (Enter /home/gauss/gdvi01p/gdv/l804.exe)
 Closed-shell transformation, MDV=    33554432 ITran=3 ISComp=1.
 Unit  1 TFree=         22271 TCopy=        160054.
 Semi-Direct transformation.
 ModeAB=           2 MOrb=             5 LenV=      33367711
 LASXX=        12955 LTotXX=       12955 LenRXX=       12955
 LTotAB=       14875 MaxLAS=       40625 LenRXY=       40625
 NonZer=       44000 LenScr=      785920 LnRSAI=           0
 LnScr1=           0 LExtra=           0 Total=       839500
 MaxDsk=          -1 SrtSym=           F ITran=            3
 DoSDTr:  NPSUse=  1
 JobTyp=0 Pass  1:  I=   1 to   5.
 (rs|ai) integrals will be sorted in core.
 Complete sort for first half transformation.
 First half transformation complete.
 Complete sort for second half transformation.
 Second half transformation complete.
 Spin components of T(2) and E(2):
     alpha-alpha T2 =       0.7057227673D-02 E2=     -0.2685064057D-01
     alpha-beta  T2 =       0.4499775910D-01 E2=     -0.1640496514D+00
     beta-beta   T2 =       0.7057227673D-02 E2=     -0.2685064057D-01
 ANorm=    0.1029131777D+01
 E2 =    -0.2177509325D+00 EUMP2 =    -0.76207929681724D+02
 Leave Link  804 at Thu Sep 24 12:03:06 2015, MaxMem=    33554432 cpu:               0.1 elap:               0.1
 (Enter /home/gauss/gdvi01p/gdv/l914.exe)
 RHF ground state
 MDV=    33554432 DFT=F DoStab=F Mixed=F DoRPA=T DoScal=F NonHer=T
 Making orbital integer symmetry assigments:
 FoFJK:  IHMeth= 1 ICntrl=       0 DoSepK=F KAlg= 0 I1Cent=           0 FoldK=F
 IRaf=         0 NMat=       1 IRICut=       1 DoRegI=T DoRafI=F ISym2E= 0 IDoP0=0 IntGTp=1.
 FoFCou: FMM=F IPFlag=           0 FMFlag=      100000 FMFlg1=           0
         NFxFlg=           0 DoJE=F BraDBF=F KetDBF=F FulRan=T
         wScrn=  0.000000 ICntrl=         0 IOpCl=  1 I1Cent=           0 NGrid=           0
         NMat0=    1 NMatS0=      1 NMatT0=    0 NMatD0=    1 NMtDS0=    0 NMtDT0=    0
 Symmetry not used in FoFCou.
    96 initial guesses have been made.
 Convergence on wavefunction:    0.001000000000000
 Davidson Disk Diagonalization:  ConvIn= 1.00D-03 SkipCon=T Conv= 1.00D-03.
 Max sub-space:   384 roots to seek:    96 dimension of matrix:          200
 Iteration     1 Dimension    96 NMult     0 NNew     96
 New state      1 was old state      2
 New state      2 was old state      4
 New state      3 was old state      1
 New state      4 was old state      6
 New state      5 was old state      8
 New state      6 was old state      5
 New state      7 was old state      3
 New state      8 was old state     10
 New state      9 was old state      7
 New state     10 was old state     12
 New state     11 was old state      9
 New state     12 was old state     11
 New state     13 was old state     14
 New state     14 was old state     18
 New state     15 was old state     13
 New state     16 was old state     20
 New state     17 was old state     16
 New state     18 was old state     15
 New state     19 was old state     17
 New state     20 was old state     22
 New state     21 was old state     19
 New state     22 was old state     24
 New state     23 was old state     28
 New state     24 was old state     21
 New state     25 was old state     23
 New state     27 was old state     32
 New state     28 was old state     30
 New state     29 was old state     25
 New state     30 was old state     36
 New state     31 was old state     29
 New state     32 was old state     31
 New state     33 was old state     34
 New state     34 was old state     35
 New state     35 was old state     33
 New state     36 was old state     40
 New state     37 was old state     39
 New state     38 was old state     42
 New state     39 was old state     38
 New state     40 was old state     44
 New state     41 was old state     37
 New state     42 was old state     43
 New state     43 was old state     41
 New state     44 was old state     45
 New state     45 was old state     46
 New state     46 was old state     48
 New state     47 was old state     52
 New state     48 was old state     47
 Excitation Energies [eV] at current iteration:
 Root      1 :     6.458836828727627
 Root      2 :     7.362415242600542
 Root      3 :     7.593220674203906
 Root      4 :     8.283517541456421
 Root      5 :     8.563142711468183
 Root      6 :     9.089760428451905
 Root      7 :    10.225548094488830
 Root      8 :    10.994687142668530
 Root      9 :    11.599917591407750
 Root     10 :    11.620361994835310
 Root     11 :    12.412128019259010
 Root     12 :    15.784209874183880
 Root     13 :    21.614649518182930
 Root     14 :    21.857342860692840
 Root     15 :    21.889022586537990
 Root     16 :    21.970197434569520
 Root     17 :    22.128552719581340
 Root     18 :    22.894294000975960
 Root     19 :    24.614076463271270
 Root     20 :    25.122361489109110
 Root     21 :    25.142812019730480
 Root     22 :    25.237700889406260
 Root     23 :    26.000282816822640
 Root     24 :    27.247360020411170
 Root     25 :    28.054116091453630
 Root     26 :    28.552463188453590
 Root     27 :    29.354295438224090
 Root     28 :    29.410912764947280
 Root     29 :    29.884787603709840
 Root     30 :    30.546466080160890
 Root     31 :    30.845817933032250
 Root     32 :    31.555148920141090
 Root     33 :    31.673830431146720
 Root     34 :    31.992750979777540
 Root     35 :    32.582853810917720
 Root     36 :    32.995526960051330
 Root     37 :    33.891599719563570
 Root     38 :    34.789019525902350
 Root     39 :    34.857566963222290
 Root     40 :    35.246990144099330
 Root     41 :    35.734491780598450
 Root     42 :    35.846989073414070
 Root     43 :    36.709179548972920
 Root     44 :    37.096087402114910
 Root     45 :    37.477743314391550
 Root     46 :    39.165765225322110
 Root     47 :    40.266455506928110
 Root     48 :    40.310870964293930
 Root     49 :    40.537397535018550
 Root     50 :    41.932766459724500
 Root     51 :    42.028854912204790
 Root     52 :    42.219780995880340
 Root     53 :    42.507562637113870
 Root     54 :    42.625265520482690
 Root     55 :    43.104960456637580
 Root     56 :    43.208560297476580
 Root     57 :    43.584449348610020
 Root     58 :    43.737714528561160
 Root     59 :    43.867303871148060
 Root     60 :    45.573041301018440
 Root     61 :    45.840047120468720
 Root     62 :    45.936038707189240
 Root     63 :    46.061391634078420
 Root     64 :    46.179387432154350
 Root     65 :    48.203765040517630
 Root     66 :    48.227989395337400
 Root     67 :    48.232730031388950
 Root     68 :    48.617483099490670
 Root     69 :    49.657129105775050
 Root     70 :    49.823265279401110
 Root     71 :    50.170579825147290
 Root     72 :    50.887828625162670
 Root     73 :    51.050985529235890
 Root     74 :    51.127485614981170
 Root     75 :    51.218456069707810
 Root     76 :    51.352362297820860
 Root     77 :    51.528369375383600
 Root     78 :    52.346914526056440
 Root     79 :    52.539304394491690
 Root     80 :    52.835403068455850
 Root     81 :    53.078710600951670
 Root     82 :    53.330103246070070
 Root     83 :    53.835359223382110
 Root     84 :    55.296891324461320
 Root     85 :    55.525202557119230
 Root     86 :    56.379976634738110
 Root     87 :    58.163655592233860
 Root     88 :    58.613101457566910
 Root     89 :    58.862978812789040
 Root     90 :    59.562944209652880
 Root     91 :    60.511829840746380
 Root     92 :    61.536794708272820
 Root     93 :    61.643133046597750
 Root     94 :    61.723978657561890
 Root     95 :    62.463232199571450
 Root     96 :    63.059072735606190
 Vector  23 SDiff=1.47D-01 TDiff=3.66D+00 assumed to be singlet.
 Vector  47 SDiff=1.49D-01 TDiff=3.34D+00 assumed to be singlet.
 Iteration     2 Dimension   144 NMult    96 NNew     48
 Root      1 not converged, maximum delta is    0.019652418525675
 Root      2 not converged, maximum delta is    0.014708224666899
 Root      3 not converged, maximum delta is    0.009622594736405
 Root      4 not converged, maximum delta is    0.025563415199945
 Root      5 not converged, maximum delta is    0.027602262123361
 Root      6 not converged, maximum delta is    0.004184066606044
 Root      7 not converged, maximum delta is    0.009181451681292
 Root      8 not converged, maximum delta is    0.013731590410869
 New state      9 was old state     10
 Root      9 not converged, maximum delta is    0.019984648917383
 New state     10 was old state      9
 Root     10 not converged, maximum delta is    0.011140678641630
 Root     11 not converged, maximum delta is    0.009139055626974
 Root     12 not converged, maximum delta is    0.018438187653436
 Root     13 not converged, maximum delta is    0.010317603441919
 Root     14 not converged, maximum delta is    0.014114477314722
 Root     15 not converged, maximum delta is    0.006385792928487
 Root     16 not converged, maximum delta is    0.010387083684510
 Root     17 not converged, maximum delta is    0.014370774770219
 Root     18 not converged, maximum delta is    0.011289981630944
 Root     19 not converged, maximum delta is    0.013521962124607
 Root     20 not converged, maximum delta is    0.039118536085156
 Root     21 not converged, maximum delta is    0.011080219427001
 Root     22 not converged, maximum delta is    0.022435160856151
 New state     23 was old state     24
 Root     23 not converged, maximum delta is    0.030094845536018
 New state     24 was old state     25
 Root     24 not converged, maximum delta is    0.031399787428735
 Excitation Energies [eV] at current iteration:
 Root      1 :     6.402260720187150   Change is   -0.056576108540477
 Root      2 :     7.275876660365108   Change is   -0.086538582235434
 Root      3 :     7.566469269437666   Change is   -0.026751404766239
 Root      4 :     8.204799956802791   Change is   -0.078717584653631
 Root      5 :     8.412708486687807   Change is   -0.150434224780376
 Root      6 :     9.084245466243864   Change is   -0.005514962208041
 Root      7 :    10.209712111361310   Change is   -0.015835983127519
 Root      8 :    10.947244365134380   Change is   -0.047442777534148
 Root      9 :    11.521420544495110   Change is   -0.098941450340201
 Root     10 :    11.564335122508540   Change is   -0.035582468899214
 Root     11 :    12.387719542936720   Change is   -0.024408476322289
 Root     12 :    15.722489689745780   Change is   -0.061720184438098
 Root     13 :    21.590285045013130   Change is   -0.024364473169807
 Root     14 :    21.816451087167020   Change is   -0.040891773525819
 Root     15 :    21.881608620539460   Change is   -0.007413965998536
 Root     16 :    21.919891785874940   Change is   -0.050305648694586
 Root     17 :    22.096373819458900   Change is   -0.032178900122442
 Root     18 :    22.857731011884400   Change is   -0.036562989091565
 Root     19 :    24.558152490960690   Change is   -0.055923972310579
 Root     20 :    25.063139952959370   Change is   -0.059221536149744
 Root     21 :    25.117347594311780   Change is   -0.025464425418702
 Root     22 :    25.150670164238720   Change is   -0.087030725167539
 Root     23 :    27.130917669490610   Change is   -0.116442350920563
 Root     24 :    27.936661590409470   Change is   -0.117454501044160
 Iteration     3 Dimension   189 NMult   144 NNew     45
 Root      1 has converged.
 Root      2 has converged.
 Root      3 has converged.
 Root      4 has converged.
 Root      5 has converged.
 Root      6 has converged.
 Root      7 has converged.
 Root      8 has converged.
 Root      9 has converged.
 Root     10 has converged.
 Root     11 has converged.
 Root     12 has converged.
 Root     13 has converged.
 Root     14 has converged.
 Root     15 has converged.
 Root     16 has converged.
 Root     17 has converged.
 Root     18 has converged.
 Root     19 has converged.
 Root     20 has converged.
 Root     21 has converged.
 Root     22 has converged.
 Root     23 not converged, maximum delta is    0.002530107692054
 Root     24 not converged, maximum delta is    0.001692280401490
 Excitation Energies [eV] at current iteration:
 Root      1 :     6.402238598155120   Change is   -0.000022122032030
 Root      2 :     7.275797623737718   Change is   -0.000079036627389
 Root      3 :     7.566453811238874   Change is   -0.000015458198791
 Root      4 :     8.204776540925243   Change is   -0.000023415877548
 Root      5 :     8.412625736980125   Change is   -0.000082749707682
 Root      6 :     9.084244481644332   Change is   -0.000000984599533
 Root      7 :    10.209705824572530   Change is   -0.000006286788772
 Root      8 :    10.947194296177880   Change is   -0.000050068956505
 Root      9 :    11.521349533809020   Change is   -0.000071010686081
 Root     10 :    11.564319252666530   Change is   -0.000015869842010
 Root     11 :    12.387707452768100   Change is   -0.000012090168616
 Root     12 :    15.722455921357000   Change is   -0.000033768388779
 Root     13 :    21.590275803595130   Change is   -0.000009241417996
 Root     14 :    21.816402266092010   Change is   -0.000048821075012
 Root     15 :    21.881608097174440   Change is   -0.000000523365014
 Root     16 :    21.919805025780700   Change is   -0.000086760094243
 Root     17 :    22.096351937362580   Change is   -0.000021882096315
 Root     18 :    22.857686329935940   Change is   -0.000044681948460
 Root     19 :    24.558117983846230   Change is   -0.000034507114456
 Root     20 :    25.063003654047240   Change is   -0.000136298912131
 Root     21 :    25.117312565522800   Change is   -0.000035028788979
 Root     22 :    25.150548208607350   Change is   -0.000121955631366
 Root     23 :    27.126927033589310   Change is   -0.003990635901295
 Root     24 :    27.932875389550420   Change is   -0.003786200859052
 Iteration     4 Dimension   191 NMult   189 NNew      2
 Root      1 has converged.
 Root      2 has converged.
 Root      3 has converged.
 Root      4 has converged.
 Root      5 has converged.
 Root      6 has converged.
 Root      7 has converged.
 Root      8 has converged.
 Root      9 has converged.
 Root     10 has converged.
 Root     11 has converged.
 Root     12 has converged.
 Root     13 has converged.
 Root     14 has converged.
 Root     15 has converged.
 Root     16 has converged.
 Root     17 has converged.
 Root     18 has converged.
 Root     19 has converged.
 Root     20 has converged.
 Root     21 has converged.
 Root     22 has converged.
 Root     23 has converged.
 Root     24 has converged.
 Excitation Energies [eV] at current iteration:
 Root      1 :     6.402238598155415   Change is    0.000000000000295
 Root      2 :     7.275797623737403   Change is   -0.000000000000316
 Root      3 :     7.566453811239005   Change is    0.000000000000130
 Root      4 :     8.204776540925394   Change is    0.000000000000151
 Root      5 :     8.412625736980447   Change is    0.000000000000322
 Root      6 :     9.084244481644285   Change is   -0.000000000000045
 Root      7 :    10.209705824466600   Change is   -0.000000000105931
 Root      8 :    10.947194296177900   Change is    0.000000000000023
 Root      9 :    11.521349533807930   Change is   -0.000000000001091
 Root     10 :    11.564319252483450   Change is   -0.000000000183078
 Root     11 :    12.387707452433950   Change is   -0.000000000334153
 Root     12 :    15.722455919788580   Change is   -0.000000001568419
 Root     13 :    21.590275803595160   Change is    0.000000000000033
 Root     14 :    21.816402266092020   Change is    0.000000000000009
 Root     15 :    21.881608097174410   Change is   -0.000000000000030
 Root     16 :    21.919805025781020   Change is    0.000000000000323
 Root     17 :    22.096351937362620   Change is    0.000000000000039
 Root     18 :    22.857686329935970   Change is    0.000000000000036
 Root     19 :    24.558117982608130   Change is   -0.000000001238107
 Root     20 :    25.063003654047530   Change is    0.000000000000296
 Root     21 :    25.117312562376640   Change is   -0.000000003146164
 Root     22 :    25.150548208607370   Change is    0.000000000000015
 Root     23 :    27.126926822721090   Change is   -0.000000210868228
 Root     24 :    27.932875103349360   Change is   -0.000000286201053
 Convergence achieved on expansion vectors.
 ***********************************************************************
 Excited states from <AA,BB:AA,BB> singles matrix:
 ***********************************************************************
 
 1PDM for each excited state written to RWF  633
 Ground to excited state transition densities written to RWF  633
 Ground to excited state transition electric dipole moments (Au):
       state          X           Y           Z        Dip. S.      Osc.
         1         0.0000      0.0000      0.0000      0.0000      0.0000
         2         0.0000      0.0000      0.0000      0.0000      0.0000
         3         0.0000      0.0000      0.2722      0.0741      0.0137
         4         0.0000      0.0000      0.0000      0.0000      0.0000
         5         0.0000      0.0000      0.0000      0.0000      0.0000
         6         0.0000      0.0000      0.0000      0.0000      0.0000
         7         0.0000      0.6261      0.0000      0.3921      0.0981
         8         0.0000      0.0000      0.0000      0.0000      0.0000
         9         0.0000      0.0000      0.0000      0.0000      0.0000
        10        -0.3909      0.0000      0.0000      0.1528      0.0433
        11         1.2694      0.0000      0.0000      1.6113      0.4890
        12         0.0000     -0.7702      0.0000      0.5933      0.2285
        13         0.0000      0.0000      0.0000      0.0000      0.0000
        14         0.0000      0.0000      0.0000      0.0000      0.0000
        15         0.0000      0.0000      0.0000      0.0000      0.0000
        16         0.0000      0.0000      0.0000      0.0000      0.0000
        17         0.0000      0.0000      0.0000      0.0000      0.0000
        18         0.0000      0.0000      0.3720      0.1384      0.0775
        19        -0.3567      0.0000      0.0000      0.1272      0.0765
        20         0.0000      0.0000      0.0000      0.0000      0.0000
        21         0.0000      0.0204      0.0000      0.0004      0.0003
        22         0.0000      0.0000      0.0000      0.0000      0.0000
        23         0.0000     -0.5463      0.0000      0.2985      0.1984
        24        -0.5976      0.0000      0.0000      0.3571      0.2444
 Ground to excited state transition velocity dipole moments (Au):
       state          X           Y           Z        Dip. S.      Osc.
         1         0.0000      0.0000      0.0000      0.0000      0.0000
         2         0.0000      0.0000      0.0000      0.0000      0.0000
         3         0.0000      0.0000     -0.1706      0.0291      0.0698
         4         0.0000      0.0000      0.0000      0.0000      0.0000
         5         0.0000      0.0000      0.0000      0.0000      0.0000
         6         0.0000      0.0000      0.0000      0.0000      0.0000
         7         0.0000     -0.3067      0.0000      0.0941      0.1672
         8         0.0000      0.0000      0.0000      0.0000      0.0000
         9         0.0000      0.0000      0.0000      0.0000      0.0000
        10         0.1650      0.0000      0.0000      0.0272      0.0427
        11        -0.5860      0.0000      0.0000      0.3434      0.5029
        12         0.0000      0.4583      0.0000      0.2100      0.2423
        13         0.0000      0.0000      0.0000      0.0000      0.0000
        14         0.0000      0.0000      0.0000      0.0000      0.0000
        15         0.0000      0.0000      0.0000      0.0000      0.0000
        16         0.0000      0.0000      0.0000      0.0000      0.0000
        17         0.0000      0.0000      0.0000      0.0000      0.0000
        18         0.0000      0.0000     -0.2924      0.0855      0.0678
        19         0.3043      0.0000      0.0000      0.0926      0.0684
        20         0.0000      0.0000      0.0000      0.0000      0.0000
        21         0.0000     -0.0581      0.0000      0.0034      0.0024
        22         0.0000      0.0000      0.0000      0.0000      0.0000
        23         0.0000      0.4942      0.0000      0.2443      0.1633
        24         0.5395      0.0000      0.0000      0.2911      0.1890
 Ground to excited state transition magnetic dipole moments (Au):
       state          X           Y           Z
         1         0.0000      0.0000      0.0000
         2         0.0000      0.0000      0.0000
         3        -0.3201      0.0000      0.0000
         4         0.0000      0.0000      0.0000
         5         0.0000      0.0000      0.0000
         6         0.0000     -0.4092      0.0000
         7         0.0000      0.0000      0.0000
         8         0.0000      0.0000      0.0000
         9         0.0000      0.0000      0.0000
        10         0.0000      0.0000      0.4636
        11         0.0000      0.0000      0.0978
        12         0.0000      0.0000      0.0000
        13         0.0000      0.0000      0.0000
        14         0.0000      0.0000      0.0000
        15         0.0000     -0.2020      0.0000
        16         0.0000      0.0000      0.0000
        17         0.0000      0.0000      0.0000
        18         0.1856      0.0000      0.0000
        19         0.0000      0.0000      0.4687
        20         0.0000      0.0000      0.0000
        21         0.0000      0.0000      0.0000
        22         0.0000      0.0000      0.0000
        23         0.0000      0.0000      0.0000
        24         0.0000      0.0000     -0.1547
 Ground to excited state transition velocity quadrupole moments (Au):
       state          XX          YY          ZZ          XY          XZ          YZ
         1         0.0000      0.0000      0.0000      0.0000      0.0000      0.0000
         2         0.0000      0.0000      0.0000      0.0000      0.0000      0.0000
         3         0.0000      0.0000      0.0000      0.0000      0.0000     -0.0934
         4         0.0000      0.0000      0.0000      0.0000      0.0000      0.0000
         5         0.0000      0.0000      0.0000      0.0000      0.0000      0.0000
         6         0.0000      0.0000      0.0000      0.0000      0.1848      0.0000
         7        -0.2528     -0.3240     -0.0362      0.0000      0.0000      0.0000
         8         0.0000      0.0000      0.0000      0.0000      0.0000      0.0000
         9         0.0000      0.0000      0.0000      0.0000      0.0000      0.0000
        10         0.0000      0.0000      0.0000      0.3317      0.0000      0.0000
        11         0.0000      0.0000      0.0000     -0.6366      0.0000      0.0000
        12         1.4426      0.6221      0.1937      0.0000      0.0000      0.0000
        13         0.0000      0.0000      0.0000      0.0000      0.0000      0.0000
        14         0.0000      0.0000      0.0000      0.0000      0.0000      0.0000
        15         0.0000      0.0000      0.0000      0.0000     -0.4587      0.0000
        16         0.0000      0.0000      0.0000      0.0000      0.0000      0.0000
        17         0.0000      0.0000      0.0000      0.0000      0.0000      0.0000
        18         0.0000      0.0000      0.0000      0.0000      0.0000     -0.0897
        19         0.0000      0.0000      0.0000     -0.0624      0.0000      0.0000
        20         0.0000      0.0000      0.0000      0.0000      0.0000      0.0000
        21         0.5167     -0.3926     -0.3316      0.0000      0.0000      0.0000
        22         0.0000      0.0000      0.0000      0.0000      0.0000      0.0000
        23        -0.3796     -0.0699     -0.7903      0.0000      0.0000      0.0000
        24         0.0000      0.0000      0.0000      0.8143      0.0000      0.0000
 <0|del|b> * <b|rxdel|0> + <0|del|b> * <b|delr+rdel|0>
 Rotatory Strengths (R) in cgs (10**-40 erg-esu-cm/Gauss)
       state          XX          YY          ZZ    R(velocity)    E-M Angle
         1         0.0000      0.0000      0.0000      0.0000       90.00
         2         0.0000      0.0000      0.0000      0.0000       90.00
         3         0.0000      0.0000      0.0000      0.0000       90.00
         4         0.0000      0.0000      0.0000      0.0000       90.00
         5         0.0000      0.0000      0.0000      0.0000       90.00
         6         0.0000      0.0000      0.0000      0.0000       90.00
         7         0.0000      0.0000      0.0000      0.0000       90.00
         8         0.0000      0.0000      0.0000      0.0000       90.00
         9         0.0000      0.0000      0.0000      0.0000       90.00
        10         0.0000      0.0000      0.0000      0.0000       90.00
        11         0.0000      0.0000      0.0000      0.0000       90.00
        12         0.0000      0.0000      0.0000      0.0000       90.00
        13         0.0000      0.0000      0.0000      0.0000       90.00
        14         0.0000      0.0000      0.0000      0.0000       90.00
        15         0.0000      0.0000      0.0000      0.0000       90.00
        16         0.0000      0.0000      0.0000      0.0000       90.00
        17         0.0000      0.0000      0.0000      0.0000       90.00
        18         0.0000      0.0000      0.0000      0.0000       90.00
        19         0.0000      0.0000      0.0000      0.0000       90.00
        20         0.0000      0.0000      0.0000      0.0000       90.00
        21         0.0000      0.0000      0.0000      0.0000       90.00
        22         0.0000      0.0000      0.0000      0.0000       90.00
        23         0.0000      0.0000      0.0000      0.0000       90.00
        24         0.0000      0.0000      0.0000      0.0000       90.00
 1/2[<0|r|b>*<b|rxdel|0> + (<0|rxdel|b>*<b|r|0>)*]
 Rotatory Strengths (R) in cgs (10**-40 erg-esu-cm/Gauss)
       state          XX          YY          ZZ     R(length)
         1         0.0000      0.0000      0.0000      0.0000
         2         0.0000      0.0000      0.0000      0.0000
         3         0.0000      0.0000      0.0000      0.0000
         4         0.0000      0.0000      0.0000      0.0000
         5         0.0000      0.0000      0.0000      0.0000
         6         0.0000      0.0000      0.0000      0.0000
         7         0.0000      0.0000      0.0000      0.0000
         8         0.0000      0.0000      0.0000      0.0000
         9         0.0000      0.0000      0.0000      0.0000
        10         0.0000      0.0000      0.0000      0.0000
        11         0.0000      0.0000      0.0000      0.0000
        12         0.0000      0.0000      0.0000      0.0000
        13         0.0000      0.0000      0.0000      0.0000
        14         0.0000      0.0000      0.0000      0.0000
        15         0.0000      0.0000      0.0000      0.0000
        16         0.0000      0.0000      0.0000      0.0000
        17         0.0000      0.0000      0.0000      0.0000
        18         0.0000      0.0000      0.0000      0.0000
        19         0.0000      0.0000      0.0000      0.0000
        20         0.0000      0.0000      0.0000      0.0000
        21         0.0000      0.0000      0.0000      0.0000
        22         0.0000      0.0000      0.0000      0.0000
        23         0.0000      0.0000      0.0000      0.0000
        24         0.0000      0.0000      0.0000      0.0000
  1/2[<0|del|b>*<b|r|0> + (<0|r|b>*<b|del|0>)*] (Au)
       state          X           Y           Z        Dip. S.   Osc.(frdel)
         1         0.0000      0.0000      0.0000      0.0000      0.0000
         2         0.0000      0.0000      0.0000      0.0000      0.0000
         3         0.0000      0.0000     -0.0465      0.0465      0.0310
         4         0.0000      0.0000      0.0000      0.0000      0.0000
         5         0.0000      0.0000      0.0000      0.0000      0.0000
         6         0.0000      0.0000      0.0000      0.0000      0.0000
         7         0.0000     -0.1920      0.0000      0.1920      0.1280
         8         0.0000      0.0000      0.0000      0.0000      0.0000
         9         0.0000      0.0000      0.0000      0.0000      0.0000
        10        -0.0645      0.0000      0.0000      0.0645      0.0430
        11        -0.7439      0.0000      0.0000      0.7439      0.4959
        12         0.0000     -0.3530      0.0000      0.3530      0.2353
        13         0.0000      0.0000      0.0000      0.0000      0.0000
        14         0.0000      0.0000      0.0000      0.0000      0.0000
        15         0.0000      0.0000      0.0000      0.0000      0.0000
        16         0.0000      0.0000      0.0000      0.0000      0.0000
        17         0.0000      0.0000      0.0000      0.0000      0.0000
        18         0.0000      0.0000     -0.1087      0.1087      0.0725
        19        -0.1085      0.0000      0.0000      0.1085      0.0723
        20         0.0000      0.0000      0.0000      0.0000      0.0000
        21         0.0000     -0.0012      0.0000      0.0012      0.0008
        22         0.0000      0.0000      0.0000      0.0000      0.0000
        23         0.0000     -0.2700      0.0000      0.2700      0.1800
        24        -0.3224      0.0000      0.0000      0.3224      0.2149

 Excitation energies and oscillator strengths:
 
 Excited state symmetry could not be determined.
 Excited State   1:      Triplet-?Sym    6.4022 eV  193.66 nm  f=0.0000  <S**2>=2.000
       5 ->  6         0.68976
       5 ->  9        -0.14541
 This state for optimization and/or second-order correction.
 Total Energy, E(TD-HF/TD-KS) =  -75.7549008098    
 Copying the excited state density for this state as the 1-particle RhoCI density.
 
 Excited state symmetry could not be determined.
 Excited State   2:      Triplet-?Sym    7.2758 eV  170.41 nm  f=0.0000  <S**2>=2.000
       3 ->  7        -0.24313
       3 ->  8        -0.10858
       4 ->  6         0.64103
       4 ->  9        -0.16338
 
 Excited state symmetry could not be determined.
 Excited State   3:      Singlet-?Sym    7.5665 eV  163.86 nm  f=0.0137  <S**2>=0.000
       5 ->  6         0.69564
       5 ->  9        -0.11594
 
 Excited state symmetry could not be determined.
 Excited State   4:      Triplet-?Sym    8.2048 eV  151.11 nm  f=0.0000  <S**2>=2.000
       5 ->  7         0.67766
       5 ->  8         0.18184
 
 Excited state symmetry could not be determined.
 Excited State   5:      Triplet-?Sym    8.4126 eV  147.38 nm  f=0.0000  <S**2>=2.000
       3 ->  6        -0.46403
       3 ->  9         0.14664
       4 ->  7         0.49449
       4 ->  8         0.17238
 
 Excited state symmetry could not be determined.
 Excited State   6:      Singlet-?Sym    9.0842 eV  136.48 nm  f=0.0000  <S**2>=0.000
       5 ->  7         0.68396
       5 ->  8         0.16158
 
 Excited state symmetry could not be determined.
 Excited State   7:      Singlet-?Sym   10.2097 eV  121.44 nm  f=0.0981  <S**2>=0.000
       3 ->  7         0.11619
       4 ->  6         0.68999
 
 Excited state symmetry could not be determined.
 Excited State   8:      Triplet-?Sym   10.9472 eV  113.26 nm  f=0.0000  <S**2>=2.000
       3 ->  6         0.50595
       4 ->  7         0.46423
       4 ->  8         0.11145
 
 Excited state symmetry could not be determined.
 Excited State   9:      Triplet-?Sym   11.5213 eV  107.61 nm  f=0.0000  <S**2>=2.000
       3 ->  7         0.62259
       3 ->  8         0.19256
       4 ->  6         0.26685
 
 Excited state symmetry could not be determined.
 Excited State  10:      Singlet-?Sym   11.5643 eV  107.21 nm  f=0.0433  <S**2>=0.000
       3 ->  6         0.22727
       4 ->  7         0.65460
       4 ->  8         0.11379
 
 Excited state symmetry could not be determined.
 Excited State  11:      Singlet-?Sym   12.3877 eV  100.09 nm  f=0.4890  <S**2>=0.000
       3 ->  6         0.66328
       4 ->  7        -0.23203
 
 Excited state symmetry could not be determined.
 Excited State  12:      Singlet-?Sym   15.7225 eV   78.86 nm  f=0.2285  <S**2>=0.000
       3 ->  7         0.68497
       4 ->  6        -0.12385
 
 Excited state symmetry could not be determined.
 Excited State  13:      Triplet-?Sym   21.5903 eV   57.43 nm  f=0.0000  <S**2>=2.000
       5 ->  7        -0.18464
       5 ->  8         0.68080
 
 Excited state symmetry could not be determined.
 Excited State  14:      Triplet-?Sym   21.8164 eV   56.83 nm  f=0.0000  <S**2>=2.000
       3 ->  6         0.10623
       3 ->  9         0.30591
       4 ->  7        -0.19133
       4 ->  8         0.59539
 
 Excited state symmetry could not be determined.
 Excited State  15:      Singlet-?Sym   21.8816 eV   56.66 nm  f=0.0000  <S**2>=0.000
       5 ->  7        -0.16370
       5 ->  8         0.68649
 
 Excited state symmetry could not be determined.
 Excited State  16:      Triplet-?Sym   21.9198 eV   56.56 nm  f=0.0000  <S**2>=2.000
       3 ->  7        -0.19745
       3 ->  8         0.39386
       4 ->  6         0.13560
       4 ->  9         0.50869
 
 Excited state symmetry could not be determined.
 Excited State  17:      Triplet-?Sym   22.0964 eV   56.11 nm  f=0.0000  <S**2>=2.000
       5 ->  6         0.15024
       5 ->  9         0.68224
 
 Excited state symmetry could not be determined.
 Excited State  18:      Singlet-?Sym   22.8577 eV   54.24 nm  f=0.0775  <S**2>=0.000
       5 ->  6         0.12147
       5 ->  9         0.68836
 
 Excited state symmetry could not be determined.
 Excited State  19:      Singlet-?Sym   24.5581 eV   50.49 nm  f=0.0765  <S**2>=0.000
       3 ->  9        -0.13407
       4 ->  7        -0.11543
       4 ->  8         0.68066
 
 Excited state symmetry could not be determined.
 Excited State  20:      Triplet-?Sym   25.0630 eV   49.47 nm  f=0.0000  <S**2>=2.000
       2 ->  6         0.12885
       3 ->  7        -0.10718
       3 ->  8         0.53629
       4 ->  9        -0.37356
       4 -> 10        -0.11611
       5 -> 11         0.14279
 
 Excited state symmetry could not be determined.
 Excited State  21:      Singlet-?Sym   25.1173 eV   49.36 nm  f=0.0003  <S**2>=0.000
       4 ->  9         0.68611
 
 Excited state symmetry could not be determined.
 Excited State  22:      Triplet-?Sym   25.1505 eV   49.30 nm  f=0.0000  <S**2>=2.000
       2 ->  7         0.12201
       3 ->  6         0.14542
       3 ->  9         0.58992
       4 ->  8        -0.31699
 
 Excited state symmetry could not be determined.
 Excited State  23:      Singlet-?Sym   27.1269 eV   45.71 nm  f=0.1984  <S**2>=0.000
       3 ->  8         0.68450
       5 -> 11         0.11965
 
 Excited state symmetry could not be determined.
 Excited State  24:      Singlet-?Sym   27.9329 eV   44.39 nm  f=0.2444  <S**2>=0.000
       3 ->  9         0.67813
       4 ->  8         0.13359
 SavETr:  write IOETrn=   770 NScale= 10 NData=  16 NLR=1 NState=   24 LETran=     442.
 Leave Link  914 at Thu Sep 24 12:03:07 2015, MaxMem=    33554432 cpu:               0.3 elap:               0.3
 (Enter /home/gauss/gdvi01p/gdv/l601.exe)
 Copying SCF densities to generalized density rwf, IOpCl= 0 IROHF=0.

 **********************************************************************

            Population analysis using the SCF density.

 **********************************************************************

 Alpha  occ. eigenvalues --  -20.57590  -1.27793  -0.63028  -0.54205  -0.48700
 Alpha virt. eigenvalues --    0.15540   0.22929   0.70450   0.74404   1.16714
 Alpha virt. eigenvalues --    1.18606   1.26769   1.44120   1.45071   1.65819
 Alpha virt. eigenvalues --    1.75350   1.80401   2.14890   2.20005   3.17218
 Alpha virt. eigenvalues --    3.20929   3.32755   3.71531   3.98516   5.84319
     Molecular Orbital Coefficients:
                           1         2         3         4         5
                           O         O         O         O         O
     Eigenvalues --   -20.57590  -1.27793  -0.63028  -0.54205  -0.48700
   1 1   O  1S          0.99686  -0.21127   0.00000   0.06674   0.00000
   2        2S          0.01571   0.45519   0.00000  -0.14275   0.00000
   3        3S         -0.00157   0.45594   0.00000  -0.31818   0.00000
   4        4PX         0.00000   0.00000   0.47456   0.00000   0.00000
   5        4PY         0.00139   0.05423   0.00000   0.53041   0.00000
   6        4PZ         0.00000   0.00000   0.00000   0.00000   0.63744
   7        5PX         0.00000   0.00000   0.26189   0.00000   0.00000
   8        5PY        -0.00068   0.00412   0.00000   0.37530   0.00000
   9        5PZ         0.00000   0.00000   0.00000   0.00000   0.49901
  10        6XX        -0.00122   0.00396   0.00000   0.00457   0.00000
  11        6YY        -0.00116   0.00335   0.00000   0.02422   0.00000
  12        6ZZ        -0.00098  -0.00074   0.00000  -0.00442   0.00000
  13        6XY         0.00000   0.00000   0.02336   0.00000   0.00000
  14        6XZ         0.00000   0.00000   0.00000   0.00000   0.00000
  15        6YZ         0.00000   0.00000   0.00000   0.00000   0.01609
  16 2   H  1S          0.00023   0.14098   0.29953   0.20879   0.00000
  17        2S          0.00024   0.01462   0.11867   0.07517   0.00000
  18        3PX         0.00012  -0.02673  -0.02294  -0.02856   0.00000
  19        3PY         0.00016  -0.01610  -0.02931   0.00370   0.00000
  20        3PZ         0.00000   0.00000   0.00000   0.00000   0.02532
  21 3   H  1S          0.00023   0.14098  -0.29953   0.20879   0.00000
  22        2S          0.00024   0.01462  -0.11867   0.07517   0.00000
  23        3PX        -0.00012   0.02673  -0.02294   0.02856   0.00000
  24        3PY         0.00016  -0.01610   0.02931   0.00370   0.00000
  25        3PZ         0.00000   0.00000   0.00000   0.00000   0.02532
                           6         7         8         9        10
                           V         V         V         V         V
     Eigenvalues --     0.15540   0.22929   0.70450   0.74404   1.16714
   1 1   O  1S         -0.09030   0.00000   0.00000   0.03046  -0.03311
   2        2S          0.08751   0.00000   0.00000  -0.25519   0.17328
   3        3S          0.91417   0.00000   0.00000   0.38974   0.20832
   4        4PX         0.00000  -0.32856  -0.28174   0.00000   0.00000
   5        4PY         0.24477   0.00000   0.00000  -0.31656  -0.77356
   6        4PZ         0.00000   0.00000   0.00000   0.00000   0.00000
   7        5PX         0.00000  -0.65503  -0.23846   0.00000   0.00000
   8        5PY         0.39449   0.00000   0.00000  -0.03800   1.05923
   9        5PZ         0.00000   0.00000   0.00000   0.00000   0.00000
  10        6XX        -0.03089   0.00000   0.00000   0.05613   0.01394
  11        6YY        -0.02178   0.00000   0.00000  -0.01665   0.07503
  12        6ZZ        -0.03486   0.00000   0.00000  -0.08366   0.04862
  13        6XY         0.00000  -0.00977   0.09167   0.00000   0.00000
  14        6XZ         0.00000   0.00000   0.00000   0.00000   0.00000
  15        6YZ         0.00000   0.00000   0.00000   0.00000   0.00000
  16 2   H  1S         -0.09860   0.07137   0.93179   0.86949  -0.31869
  17        2S         -0.76574   1.18277  -0.87049  -0.64798  -0.07428
  18        3PX         0.00322  -0.00975   0.03822   0.19053   0.02297
  19        3PY         0.00847  -0.00280   0.11002   0.03826   0.30633
  20        3PZ         0.00000   0.00000   0.00000   0.00000   0.00000
  21 3   H  1S         -0.09860  -0.07137  -0.93179   0.86949  -0.31869
  22        2S         -0.76574  -1.18277   0.87049  -0.64798  -0.07428
  23        3PX        -0.00322  -0.00975   0.03822  -0.19053  -0.02297
  24        3PY         0.00847   0.00280  -0.11002   0.03826   0.30633
  25        3PZ         0.00000   0.00000   0.00000   0.00000   0.00000
                          11        12        13        14        15
                           V         V         V         V         V
     Eigenvalues --     1.18606   1.26769   1.44120   1.45071   1.65819
   1 1   O  1S          0.00000   0.00000  -0.00360   0.00000   0.00000
   2        2S          0.00000   0.00000  -0.73725   0.00000   0.00000
   3        3S          0.00000   0.00000   1.18644   0.00000   0.00000
   4        4PX         0.00000  -0.79259   0.00000   0.00000   0.00000
   5        4PY         0.00000   0.00000   0.18791   0.00000   0.00000
   6        4PZ         0.94331   0.00000   0.00000   0.00000   0.20704
   7        5PX         0.00000   1.57618   0.00000   0.00000   0.00000
   8        5PY         0.00000   0.00000  -0.51274   0.00000   0.00000
   9        5PZ        -0.92878   0.00000   0.00000   0.00000  -0.69198
  10        6XX         0.00000   0.00000  -0.25581   0.00000   0.00000
  11        6YY         0.00000   0.00000  -0.02746   0.00000   0.00000
  12        6ZZ         0.00000   0.00000  -0.16775   0.00000   0.00000
  13        6XY         0.00000  -0.00468   0.00000   0.00000   0.00000
  14        6XZ         0.00000   0.00000   0.00000   0.14397   0.00000
  15        6YZ        -0.00913   0.00000   0.00000   0.00000   0.16268
  16 2   H  1S          0.00000  -0.28159   0.15627   0.00000   0.00000
  17        2S          0.00000  -0.62681  -0.24281   0.00000   0.00000
  18        3PX         0.00000   0.32863  -0.34375   0.00000   0.00000
  19        3PY         0.00000   0.09708   0.44110   0.00000   0.00000
  20        3PZ        -0.12788   0.00000   0.00000   0.68101   0.73402
  21 3   H  1S          0.00000   0.28159   0.15627   0.00000   0.00000
  22        2S          0.00000   0.62681  -0.24281   0.00000   0.00000
  23        3PX         0.00000   0.32863   0.34375   0.00000   0.00000
  24        3PY         0.00000  -0.09708   0.44110   0.00000   0.00000
  25        3PZ        -0.12788   0.00000   0.00000  -0.68101   0.73402
                          16        17        18        19        20
                           V         V         V         V         V
     Eigenvalues --     1.75350   1.80401   2.14890   2.20005   3.17218
   1 1   O  1S         -0.06365   0.00000   0.00000  -0.07500   0.00000
   2        2S         -1.27708   0.00000   0.00000  -0.05014   0.00000
   3        3S          2.65413   0.00000   0.00000   1.35902   0.00000
   4        4PX         0.00000  -0.15851   0.65353   0.00000   0.00000
   5        4PY        -0.29858   0.00000   0.00000   0.50029   0.00000
   6        4PZ         0.00000   0.00000   0.00000   0.00000  -0.05243
   7        5PX         0.00000   0.89895   0.16232   0.00000   0.00000
   8        5PY         1.09138   0.00000   0.00000   0.40060   0.00000
   9        5PZ         0.00000   0.00000   0.00000   0.00000   0.21744
  10        6XX        -0.25469   0.00000   0.00000  -0.13620   0.00000
  11        6YY        -0.38890   0.00000   0.00000  -0.07070   0.00000
  12        6ZZ        -0.12016   0.00000   0.00000   0.21728   0.00000
  13        6XY         0.00000  -0.02771  -0.11472   0.00000   0.00000
  14        6XZ         0.00000   0.00000   0.00000   0.00000   0.00000
  15        6YZ         0.00000   0.00000   0.00000   0.00000   1.01196
  16 2   H  1S         -0.64148  -0.33992  -0.09745  -0.42602   0.00000
  17        2S         -0.28860  -0.09858  -0.34465  -0.25892   0.00000
  18        3PX         0.28890  -0.37897   0.64689   0.76503   0.00000
  19        3PY        -0.20559   0.68072   0.50030   0.49539   0.00000
  20        3PZ         0.00000   0.00000   0.00000   0.00000  -0.29854
  21 3   H  1S         -0.64148   0.33992   0.09745  -0.42602   0.00000
  22        2S         -0.28860   0.09858   0.34465  -0.25892   0.00000
  23        3PX        -0.28890  -0.37897   0.64689  -0.76503   0.00000
  24        3PY        -0.20559  -0.68072  -0.50030   0.49539   0.00000
  25        3PZ         0.00000   0.00000   0.00000   0.00000  -0.29854
                          21        22        23        24        25
                           V         V         V         V         V
     Eigenvalues --     3.20929   3.32755   3.71531   3.98516   5.84319
   1 1   O  1S          0.00000  -0.01127  -0.08672   0.00000  -0.41857
   2        2S          0.00000  -0.10612  -0.40181   0.00000   1.70602
   3        3S          0.00000   0.30294   1.88967   0.00000   1.64053
   4        4PX         0.00000   0.00000   0.00000   0.19794   0.00000
   5        4PY         0.00000  -0.05413   0.17451   0.00000  -0.08782
   6        4PZ         0.00000   0.00000   0.00000   0.00000   0.00000
   7        5PX         0.00000   0.00000   0.00000   0.95588   0.00000
   8        5PY         0.00000   0.35432   0.81001   0.00000   0.10148
   9        5PZ         0.00000   0.00000   0.00000   0.00000   0.00000
  10        6XX         0.00000  -0.71043   0.77097   0.00000  -1.46710
  11        6YY         0.00000   1.00110   0.13394   0.00000  -1.43061
  12        6ZZ         0.00000  -0.32381  -1.12266   0.00000  -1.40965
  13        6XY         0.00000   0.00000   0.00000   1.24231   0.00000
  14        6XZ         1.02463   0.00000   0.00000   0.00000   0.00000
  15        6YZ         0.00000   0.00000   0.00000   0.00000   0.00000
  16 2   H  1S          0.00000  -0.15678  -0.82281  -0.69384   0.01926
  17        2S          0.00000  -0.01806  -0.18883  -0.25219  -0.17530
  18        3PX         0.00000   0.26948   0.56481   0.50445  -0.08967
  19        3PY         0.00000  -0.25915   0.39871   0.44210  -0.08691
  20        3PZ        -0.28736   0.00000   0.00000   0.00000   0.00000
  21 3   H  1S          0.00000  -0.15678  -0.82281   0.69384   0.01926
  22        2S          0.00000  -0.01806  -0.18883   0.25219  -0.17530
  23        3PX         0.00000  -0.26948  -0.56481   0.50445   0.08967
  24        3PY         0.00000  -0.25915   0.39871  -0.44210  -0.08691
  25        3PZ         0.28736   0.00000   0.00000   0.00000   0.00000
     Density Matrix:
                           1         2         3         4         5
   1 1   O  1S          2.08566
   2        2S         -0.18007   0.45564
   3        3S         -0.23826   0.50586   0.61823
   4        4PX         0.00000   0.00000   0.00000   0.45041
   5        4PY         0.05066  -0.10201  -0.28808   0.00000   0.56855
   6        4PZ         0.00000   0.00000   0.00000   0.00000   0.00000
   7        5PX         0.00000   0.00000   0.00000   0.24857   0.00000
   8        5PY         0.04701  -0.10342  -0.23507   0.00000   0.39857
   9        5PZ         0.00000   0.00000   0.00000   0.00000   0.00000
  10        6XX        -0.00349   0.00226   0.00070   0.00000   0.00528
  11        6YY        -0.00050  -0.00390  -0.01235   0.00000   0.02605
  12        6ZZ        -0.00223   0.00056   0.00214   0.00000  -0.00477
  13        6XY         0.00000   0.00000   0.00000   0.02217   0.00000
  14        6XZ         0.00000   0.00000   0.00000   0.00000   0.00000
  15        6YZ         0.00000   0.00000   0.00000   0.00000   0.00000
  16 2   H  1S         -0.03123   0.06874  -0.00431   0.28428   0.23678
  17        2S          0.00434  -0.00814  -0.03450   0.11263   0.08133
  18        3PX         0.00773  -0.01618  -0.00620  -0.02178  -0.03319
  19        3PY         0.00761  -0.01571  -0.01703  -0.02781   0.00218
  20        3PZ         0.00000   0.00000   0.00000   0.00000   0.00000
  21 3   H  1S         -0.03123   0.06874  -0.00431  -0.28428   0.23678
  22        2S          0.00434  -0.00814  -0.03450  -0.11263   0.08133
  23        3PX        -0.00773   0.01618   0.00620  -0.02178   0.03319
  24        3PY         0.00761  -0.01571  -0.01703   0.02781   0.00218
  25        3PZ         0.00000   0.00000   0.00000   0.00000   0.00000
                           6         7         8         9        10
   6        4PZ         0.81265
   7        5PX         0.00000   0.13718
   8        5PY         0.00000   0.00000   0.28174
   9        5PZ         0.63618   0.00000   0.00000   0.49803
  10        6XX         0.00000   0.00000   0.00347   0.00000   0.00008
  11        6YY         0.00000   0.00000   0.01821   0.00000   0.00025
  12        6ZZ         0.00000   0.00000  -0.00332   0.00000  -0.00004
  13        6XY         0.00000   0.01224   0.00000   0.00000   0.00000
  14        6XZ         0.00000   0.00000   0.00000   0.00000   0.00000
  15        6YZ         0.02052   0.00000   0.00000   0.01606   0.00000
  16 2   H  1S          0.00000   0.15689   0.15788   0.00000   0.00303
  17        2S          0.00000   0.06216   0.05654   0.00000   0.00080
  18        3PX         0.00000  -0.01202  -0.02166   0.00000  -0.00047
  19        3PY         0.00000  -0.01535   0.00264   0.00000  -0.00009
  20        3PZ         0.03227   0.00000   0.00000   0.02527   0.00000
  21 3   H  1S          0.00000  -0.15689   0.15788   0.00000   0.00303
  22        2S          0.00000  -0.06216   0.05654   0.00000   0.00080
  23        3PX         0.00000  -0.01202   0.02166   0.00000   0.00047
  24        3PY         0.00000   0.01535   0.00264   0.00000  -0.00009
  25        3PZ         0.03227   0.00000   0.00000   0.02527   0.00000
                          11        12        13        14        15
  11        6YY         0.00120
  12        6ZZ        -0.00022   0.00004
  13        6XY         0.00000   0.00000   0.00109
  14        6XZ         0.00000   0.00000   0.00000   0.00000
  15        6YZ         0.00000   0.00000   0.00000   0.00000   0.00052
  16 2   H  1S          0.01106  -0.00205   0.01399   0.00000   0.00000
  17        2S          0.00374  -0.00069   0.00554   0.00000   0.00000
  18        3PX        -0.00156   0.00029  -0.00107   0.00000   0.00000
  19        3PY         0.00007  -0.00001  -0.00137   0.00000   0.00000
  20        3PZ         0.00000   0.00000   0.00000   0.00000   0.00081
  21 3   H  1S          0.01106  -0.00205  -0.01399   0.00000   0.00000
  22        2S          0.00374  -0.00069  -0.00554   0.00000   0.00000
  23        3PX         0.00156  -0.00029  -0.00107   0.00000   0.00000
  24        3PY         0.00007  -0.00001   0.00137   0.00000   0.00000
  25        3PZ         0.00000   0.00000   0.00000   0.00000   0.00081
                          16        17        18        19        20
  16 2   H  1S          0.30637
  17        2S          0.10660   0.03990
  18        3PX        -0.03321  -0.01052   0.00411
  19        3PY        -0.02055  -0.00687   0.00199   0.00226
  20        3PZ         0.00000   0.00000   0.00000   0.00000   0.00128
  21 3   H  1S         -0.05249  -0.03558  -0.00572   0.01456   0.00000
  22        2S         -0.03558  -0.01644   0.00037   0.00704   0.00000
  23        3PX         0.00572  -0.00037  -0.00201   0.00070   0.00000
  24        3PY         0.01456   0.00704  -0.00070  -0.00117   0.00000
  25        3PZ         0.00000   0.00000   0.00000   0.00000   0.00128
                          21        22        23        24        25
  21 3   H  1S          0.30637
  22        2S          0.10660   0.03990
  23        3PX         0.03321   0.01052   0.00411
  24        3PY        -0.02055  -0.00687  -0.00199   0.00226
  25        3PZ         0.00000   0.00000   0.00000   0.00000   0.00128
    Full Mulliken population analysis:
                           1         2         3         4         5
   1 1   O  1S          2.08566
   2        2S         -0.04055   0.45564
   3        3S         -0.04380   0.40075   0.61823
   4        4PX         0.00000   0.00000   0.00000   0.45041
   5        4PY         0.00000   0.00000   0.00000   0.00000   0.56855
   6        4PZ         0.00000   0.00000   0.00000   0.00000   0.00000
   7        5PX         0.00000   0.00000   0.00000   0.12460   0.00000
   8        5PY         0.00000   0.00000   0.00000   0.00000   0.19979
   9        5PZ         0.00000   0.00000   0.00000   0.00000   0.00000
  10        6XX        -0.00021   0.00149   0.00047   0.00000   0.00000
  11        6YY        -0.00003  -0.00256  -0.00820   0.00000   0.00000
  12        6ZZ        -0.00014   0.00037   0.00142   0.00000   0.00000
  13        6XY         0.00000   0.00000   0.00000   0.00000   0.00000
  14        6XZ         0.00000   0.00000   0.00000   0.00000   0.00000
  15        6YZ         0.00000   0.00000   0.00000   0.00000   0.00000
  16 2   H  1S         -0.00099   0.01453  -0.00176   0.04900   0.03189
  17        2S          0.00025  -0.00258  -0.02041   0.00965   0.00544
  18        3PX        -0.00037   0.00431   0.00176   0.00372   0.00760
  19        3PY        -0.00028   0.00327   0.00377   0.00637  -0.00012
  20        3PZ         0.00000   0.00000   0.00000   0.00000   0.00000
  21 3   H  1S         -0.00099   0.01453  -0.00176   0.04900   0.03189
  22        2S          0.00025  -0.00258  -0.02041   0.00965   0.00544
  23        3PX        -0.00037   0.00431   0.00176   0.00372   0.00760
  24        3PY        -0.00028   0.00327   0.00377   0.00637  -0.00012
  25        3PZ         0.00000   0.00000   0.00000   0.00000   0.00000
                           6         7         8         9        10
   6        4PZ         0.81265
   7        5PX         0.00000   0.13718
   8        5PY         0.00000   0.00000   0.28174
   9        5PZ         0.31890   0.00000   0.00000   0.49803
  10        6XX         0.00000   0.00000   0.00000   0.00000   0.00008
  11        6YY         0.00000   0.00000   0.00000   0.00000   0.00008
  12        6ZZ         0.00000   0.00000   0.00000   0.00000  -0.00001
  13        6XY         0.00000   0.00000   0.00000   0.00000   0.00000
  14        6XZ         0.00000   0.00000   0.00000   0.00000   0.00000
  15        6YZ         0.00000   0.00000   0.00000   0.00000   0.00000
  16 2   H  1S          0.00000   0.07313   0.05749   0.00000   0.00080
  17        2S          0.00000   0.02018   0.01434   0.00000   0.00025
  18        3PX         0.00000   0.00027   0.00576   0.00000   0.00010
  19        3PY         0.00000   0.00408   0.00029   0.00000   0.00003
  20        3PZ         0.00396   0.00000   0.00000   0.00803   0.00000
  21 3   H  1S          0.00000   0.07313   0.05749   0.00000   0.00080
  22        2S          0.00000   0.02018   0.01434   0.00000   0.00025
  23        3PX         0.00000   0.00027   0.00576   0.00000   0.00010
  24        3PY         0.00000   0.00408   0.00029   0.00000   0.00003
  25        3PZ         0.00396   0.00000   0.00000   0.00803   0.00000
                          11        12        13        14        15
  11        6YY         0.00120
  12        6ZZ        -0.00007   0.00004
  13        6XY         0.00000   0.00000   0.00109
  14        6XZ         0.00000   0.00000   0.00000   0.00000
  15        6YZ         0.00000   0.00000   0.00000   0.00000   0.00052
  16 2   H  1S          0.00242  -0.00030   0.00226   0.00000   0.00000
  17        2S          0.00112  -0.00020   0.00013   0.00000   0.00000
  18        3PX         0.00050  -0.00005   0.00021   0.00000   0.00000
  19        3PY        -0.00001   0.00000   0.00012   0.00000   0.00000
  20        3PZ         0.00000   0.00000   0.00000   0.00000   0.00011
  21 3   H  1S          0.00242  -0.00030   0.00226   0.00000   0.00000
  22        2S          0.00112  -0.00020   0.00013   0.00000   0.00000
  23        3PX         0.00050  -0.00005   0.00021   0.00000   0.00000
  24        3PY        -0.00001   0.00000   0.00012   0.00000   0.00000
  25        3PZ         0.00000   0.00000   0.00000   0.00000   0.00011
                          16        17        18        19        20
  16 2   H  1S          0.30637
  17        2S          0.07301   0.03990
  18        3PX         0.00000   0.00000   0.00411
  19        3PY         0.00000   0.00000   0.00000   0.00226
  20        3PZ         0.00000   0.00000   0.00000   0.00000   0.00128
  21 3   H  1S         -0.00348  -0.00853   0.00050   0.00000   0.00000
  22        2S         -0.00853  -0.00854  -0.00006   0.00000   0.00000
  23        3PX         0.00050  -0.00006   0.00028   0.00000   0.00000
  24        3PY         0.00000   0.00000   0.00000  -0.00002   0.00000
  25        3PZ         0.00000   0.00000   0.00000   0.00000   0.00003
                          21        22        23        24        25
  21 3   H  1S          0.30637
  22        2S          0.07301   0.03990
  23        3PX         0.00000   0.00000   0.00411
  24        3PY         0.00000   0.00000   0.00000   0.00226
  25        3PZ         0.00000   0.00000   0.00000   0.00000   0.00128
     Gross orbital populations:
                           1
   1 1   O  1S          1.99815
   2        2S          0.85419
   3        3S          0.93560
   4        4PX         0.71248
   5        4PY         0.85796
   6        4PZ         1.13946
   7        5PX         0.45710
   8        5PY         0.63730
   9        5PZ         0.83298
  10        6XX         0.00425
  11        6YY        -0.00152
  12        6ZZ         0.00052
  13        6XY         0.00654
  14        6XZ         0.00000
  15        6YZ         0.00075
  16 2   H  1S          0.59635
  17        2S          0.12393
  18        3PX         0.02866
  19        3PY         0.01977
  20        3PZ         0.01341
  21 3   H  1S          0.59635
  22        2S          0.12393
  23        3PX         0.02866
  24        3PY         0.01977
  25        3PZ         0.01341
          Condensed to atoms (all electrons):
               1          2          3
     1  O    7.815587   0.310092   0.310092
     2  H    0.310092   0.499943  -0.027922
     3  H    0.310092  -0.027922   0.499943
 Mulliken charges:
               1
     1  O   -0.435772
     2  H    0.217886
     3  H    0.217886
 Sum of Mulliken charges =   0.00000
 Mulliken charges with hydrogens summed into heavy atoms:
               1
     1  O    0.000000
 Electronic spatial extent (au):  <R**2>=             20.6492
 Charge=              0.0000 electrons
 Dipole moment (field-independent basis, Debye):
    X=              0.0000    Y=              2.1759    Z=              0.0000  Tot=              2.1759
 Quadrupole moment (field-independent basis, Debye-Ang):
   XX=             -3.8546   YY=             -5.6539   ZZ=             -7.3518
   XY=              0.0000   XZ=              0.0000   YZ=              0.0000
 Traceless Quadrupole moment (field-independent basis, Debye-Ang):
   XX=              1.7655   YY=             -0.0338   ZZ=             -1.7317
   XY=              0.0000   XZ=              0.0000   YZ=              0.0000
 Octapole moment (field-independent basis, Debye-Ang**2):
  XXX=              0.0000  YYY=              0.0690  ZZZ=              0.0000  XYY=              0.0000
  XXY=              1.5294  XXZ=              0.0000  XZZ=              0.0000  YZZ=             -0.2431
  YYZ=              0.0000  XYZ=              0.0000
 Hexadecapole moment (field-independent basis, Debye-Ang**3):
 XXXX=             -6.6971 YYYY=             -6.7490 ZZZZ=             -5.2678 XXXY=              0.0000
 XXXZ=              0.0000 YYYX=              0.0000 YYYZ=              0.0000 ZZZX=              0.0000
 ZZZY=              0.0000 XXYY=             -1.4525 XXZZ=             -2.4785 YYZZ=             -2.1225
 XXYZ=              0.0000 YYXZ=              0.0000 ZZXY=              0.0000
 N-N= 8.002366485626D+00 E-N=-1.964836466284D+02  KE= 7.552488813210D+01
 Orbital energies and kinetic energies (alpha):
                                 1                 2
   1         O               -20.575899         29.190304
   2         O                -1.277928          2.643288
   3         O                -0.630283          1.593729
   4         O                -0.542054          2.033313
   5         O                -0.487003          2.301810
   6         V                 0.155401          0.950254
   7         V                 0.229292          0.936873
   8         V                 0.704505          1.792765
   9         V                 0.744040          2.007613
  10         V                 1.167144          3.026064
  11         V                 1.186058          3.593956
  12         V                 1.267689          2.985082
  13         V                 1.441202          2.205363
  14         V                 1.450714          1.889513
  15         V                 1.658192          2.109211
  16         V                 1.753497          2.780583
  17         V                 1.804006          2.203143
  18         V                 2.148900          3.568183
  19         V                 2.200051          3.471392
  20         V                 3.172181          4.311608
  21         V                 3.209290          4.361655
  22         V                 3.327545          4.487735
  23         V                 3.715314          5.026201
  24         V                 3.985156          5.347661
  25         V                 5.843190         13.690890
 Total kinetic energy from orbitals= 7.552488813210D+01
 Leave Link  601 at Thu Sep 24 12:03:07 2015, MaxMem=    33554432 cpu:               0.0 elap:               0.0
 (Enter /home/gauss/gdvi01p/gdv/l9999.exe)
 Unable to Open any file for archive entry.
 1\1\GINC-MEDUSA\SP\RTD-Full\CC-pVDZ\H2O1\DBWY\24-Sep-2015\0\\#p hf/cc-
 pVDZ gfinput pop=full nosymm td(full,nstates=12,50-50) 6D\\Water cc-pV
 DZ\\0,1\O,0,0.,-0.0757918436,0.\H,0,0.866811829,0.6014357793,0.\H,0,-0
 .866811829,0.6014357793,0.\\Version=ES64L-GDVRevI.01+\HF=-75.9901787\M
 P2=-76.2079297\RMSD=6.584e-09\PG=C02V [C2(O1),SGV(H2)]\\@
 The archive entry for this job was punched.


 TIME IS NATURE'S WAY OF MAKING SURE EVERYTHING
 DOESN'T HAPPEN AT ONCE.
                     - WOODY ALLEN
 Job cpu time:       0 days  0 hours  0 minutes  1.2 seconds.
 Elapsed time:       0 days  0 hours  0 minutes  1.0 seconds.
 File lengths (MBytes):  RWF=     13 Int=      0 D2E=      0 Chk=      2 Scr=      1
 Normal termination of Gaussian DV at Thu Sep 24 12:03:07 2015.
