 Entering Gaussian System, Link 0=gdv
 Input=h2o_ccpVDZ_CIS.com
 Output=h2o_ccpVDZ_CIS.log
 Initial command:
 /home/gauss/gdvi03p/gdv/l1.exe "/home/GauScr/Gau-18785.inp" -scrdir="/home/GauScr/"
 Entering Link 1 = /home/gauss/gdvi03p/gdv/l1.exe PID=     18786.
  
 Copyright (c) 1988,1990,1992,1993,1995,1998,2003,2009,2015,
            Gaussian, Inc.  All Rights Reserved.
  
 This is the private, development version of
 the Gaussian(R) DV system of programs. It is based on
 the Gaussian(R) 09 system (copyright 2009, Gaussian, Inc.),
 the Gaussian(R) 03 system (copyright 2003, Gaussian, Inc.),
 the Gaussian(R) 98 system (copyright 1998, Gaussian, Inc.),
 the Gaussian(R) 94 system (copyright 1995, Gaussian, Inc.),
 the Gaussian 92(TM) system (copyright 1992, Gaussian, Inc.),
 the Gaussian 90(TM) system (copyright 1990, Gaussian, Inc.),
 the Gaussian 88(TM) system (copyright 1988, Gaussian, Inc.),
 the Gaussian 86(TM) system (copyright 1986, Carnegie Mellon
 University), and the Gaussian 82(TM) system (copyright 1983,
 Carnegie Mellon University). Gaussian is a federally registered
 trademark of Gaussian, Inc.
  
 This software contains proprietary and confidential information,
 including trade secrets, belonging to Gaussian, Inc.
  
 This software is provided under written license and may be
 used, copied, transmitted, or stored only in accord with that
 written license.
  
 The following legend is applicable only to US Government
 contracts under FAR:
  
                    RESTRICTED RIGHTS LEGEND
  
 Use, reproduction and disclosure by the US Government is
 subject to restrictions as set forth in subparagraphs (a)
 and (c) of the Commercial Computer Software - Restricted
 Rights clause in FAR 52.227-19.
  
 Gaussian, Inc.
 340 Quinnipiac St., Bldg. 40, Wallingford CT 06492
  
  
 ---------------------------------------------------------------
 Warning -- This program may not be used in any manner that
 competes with the business of Gaussian, Inc. or will provide
 assistance to any competitor of Gaussian, Inc.  The licensee
 of this program is prohibited from giving any competitor of
 Gaussian, Inc. access to this program.  By using this program,
 the user acknowledges that Gaussian, Inc. is engaged in the
 business of creating and licensing software in the field of
 computational chemistry and represents and warrants to the
 licensee that it is not a competitor of Gaussian, Inc. and that
 it will not use this program in any manner prohibited above.
 ---------------------------------------------------------------
  

 Cite this work as:
 Gaussian Development Version, Revision I.03+,
 M. J. Frisch, G. W. Trucks, H. B. Schlegel, G. E. Scuseria, 
 M. A. Robb, J. R. Cheeseman, G. Scalmani, V. Barone, B. Mennucci, 
 G. A. Petersson, H. Nakatsuji, M. Caricato, X. Li, H. P. Hratchian, 
 J. Bloino, B. G. Janesko, A. F. Izmaylov, A. Marenich, F. Lipparini, 
 G. Zheng, J. L. Sonnenberg, W. Liang, M. Hada, M. Ehara, K. Toyota, 
 R. Fukuda, J. Hasegawa, M. Ishida, T. Nakajima, Y. Honda, O. Kitao, 
 H. Nakai, T. Vreven, K. Throssell, J. A. Montgomery, Jr., 
 J. E. Peralta, F. Ogliaro, M. Bearpark, J. J. Heyd, E. Brothers, 
 K. N. Kudin, V. N. Staroverov, T. Keith, R. Kobayashi, J. Normand, 
 K. Raghavachari, A. Rendell, J. C. Burant, S. S. Iyengar, J. Tomasi, 
 M. Cossi, N. Rega, J. M. Millam, M. Klene, J. E. Knox, J. B. Cross, 
 V. Bakken, C. Adamo, J. Jaramillo, R. Gomperts, R. E. Stratmann, 
 O. Yazyev, A. J. Austin, R. Cammi, C. Pomelli, J. W. Ochterski, 
 R. L. Martin, K. Morokuma, V. G. Zakrzewski, G. A. Voth, 
 P. Salvador, J. J. Dannenberg, S. Dapprich, P. V. Parandekar, 
 N. J. Mayhall, A. D. Daniels, O. Farkas, J. B. Foresman, 
 J. V. Ortiz, J. Cioslowski, and D. J. Fox, 
 Gaussian, Inc., Wallingford CT, 2014.
 
 *******************************************
 Gaussian DV:  ES64L-GDVRevI.03+  2-May-2015
                 28-Oct-2015 
 *******************************************
 %chk=h2o
 %nproc=2
 Will use up to    2 processors via shared memory.
 -------------------------------------
 #p hf/cc-pvdz cis(full,nstates=12) 6D
 -------------------------------------
 1/38=1,172=1/1;
 2/12=2,17=6,18=5,40=1/2;
 3/5=16,8=2,11=9,25=1,30=1/1,2,3,8;
 4//1;
 5/5=2,38=5/2;
 8/6=1,10=90,108=12/1,4;
 9/41=12,42=3/14;
 6/7=2,8=2,9=2,10=2/1;
 99/5=1,9=1/99;
 Leave Link    1 at Wed Oct 28 10:09:46 2015, MaxMem=           0 cpu:               0.1 elap:               0.0
 (Enter /home/gauss/gdvi03p/gdv/l101.exe)
 --------------
 Water singlets
 --------------
 Symbolic Z-matrix:
 Charge =  0 Multiplicity = 1
 O                     0.       -0.07579   0. 
 H                     0.86681   0.60144   0. 
 H                    -0.86681   0.60144   0. 
 
 ITRead=  0  0  0
 MicOpt= -1 -1 -1
 NAtoms=      3 NQM=        3 NQMF=       0 NMMI=      0 NMMIF=      0
                NMic=       0 NMicF=      0.
                    Isotopes and Nuclear Properties:
 (Nuclear quadrupole moments (NQMom) in fm**2, nuclear magnetic moments (NMagM)
  in nuclear magnetons)

  Atom         1           2           3
 IAtWgt=          16           1           1
 AtmWgt=  15.9949146   1.0078250   1.0078250
 NucSpn=           0           1           1
 AtZEff=   0.0000000   0.0000000   0.0000000
 NQMom=    0.0000000   0.0000000   0.0000000
 NMagM=    0.0000000   2.7928460   2.7928460
 AtZNuc=   8.0000000   1.0000000   1.0000000
 Leave Link  101 at Wed Oct 28 10:09:46 2015, MaxMem=    33554432 cpu:               0.2 elap:               0.1
 (Enter /home/gauss/gdvi03p/gdv/l202.exe)
                          Input orientation:                          
 ---------------------------------------------------------------------
 Center     Atomic      Atomic             Coordinates (Angstroms)
 Number     Number       Type             X           Y           Z
 ---------------------------------------------------------------------
      1          8           0        0.000000   -0.075792    0.000000
      2          1           0        0.866812    0.601436    0.000000
      3          1           0       -0.866812    0.601436    0.000000
 ---------------------------------------------------------------------
                    Distance matrix (angstroms):
                    1          2          3
     1  O    0.000000
     2  H    1.100000   0.000000
     3  H    1.100000   1.733624   0.000000
 Stoichiometry    H2O
 Framework group  C2V[C2(O),SGV(H2)]
 Deg. of freedom     2
 Full point group                 C2V     NOp   4
 Largest Abelian subgroup         C2V     NOp   4
 Largest concise Abelian subgroup C2      NOp   2
                         Standard orientation:                         
 ---------------------------------------------------------------------
 Center     Atomic      Atomic             Coordinates (Angstroms)
 Number     Number       Type             X           Y           Z
 ---------------------------------------------------------------------
      1          8           0        0.000000    0.000000    0.135446
      2          1           0        0.000000    0.866812   -0.541782
      3          1           0        0.000000   -0.866812   -0.541782
 ---------------------------------------------------------------------
 Rotational constants (GHZ):    615.5709784    333.6970768    216.3922350
 Leave Link  202 at Wed Oct 28 10:09:46 2015, MaxMem=    33554432 cpu:               0.0 elap:               0.0
 (Enter /home/gauss/gdvi03p/gdv/l301.exe)
 Standard basis: CC-pVDZ (6D, 7F)
 Ernie: Thresh=  0.10000D-02 Tol=  0.10000D-05 Strict=F.
 Ernie:  2 primitive shells out of 32 were deleted.
 There are    12 symmetry adapted cartesian basis functions of A1  symmetry.
 There are     2 symmetry adapted cartesian basis functions of A2  symmetry.
 There are     4 symmetry adapted cartesian basis functions of B1  symmetry.
 There are     7 symmetry adapted cartesian basis functions of B2  symmetry.
 There are    12 symmetry adapted basis functions of A1  symmetry.
 There are     2 symmetry adapted basis functions of A2  symmetry.
 There are     4 symmetry adapted basis functions of B1  symmetry.
 There are     7 symmetry adapted basis functions of B2  symmetry.
    25 basis functions,    47 primitive gaussians,    25 cartesian basis functions
     5 alpha electrons        5 beta electrons
       nuclear repulsion energy         8.0023664856 Hartrees.
 IExCor=    0 DFT=F Ex=HF Corr=None ExCW=0 ScaHFX=  1.000000
 ScaDFX=  1.000000  1.000000  1.000000  1.000000 ScalE2=  1.000000  1.000000
 IRadAn=      0 IRanWt=     -1 IRanGd=            0 ICorTp=0 IEmpDi=  4
 NAtoms=    3 NActive=    3 NUniq=    2 SFac= 2.25D+00 NAtFMM=   60 NAOKFM=F Big=F
 Integral buffers will be    131072 words long.
 Raffenetti 1 integral format.
 Two-electron integral symmetry is turned on.
 Leave Link  301 at Wed Oct 28 10:09:46 2015, MaxMem=    33554432 cpu:               0.1 elap:               0.1
 (Enter /home/gauss/gdvi03p/gdv/l302.exe)
 NPDir=0 NMtPBC=     1 NCelOv=     1 NCel=       1 NClECP=     1 NCelD=      1
         NCelK=      1 NCelE2=     1 NClLst=     1 CellRange=     0.0.
 One-electron integrals computed using PRISM.
 One-electron integral symmetry used in STVInt
 NBasis=    25 RedAO= T EigKep=  3.91D-02  NBF=    12     2     4     7
 NBsUse=    25 1.00D-06 EigRej= -1.00D+00 NBFU=    12     2     4     7
 Leave Link  302 at Wed Oct 28 10:09:46 2015, MaxMem=    33554432 cpu:               0.2 elap:               0.1
 (Enter /home/gauss/gdvi03p/gdv/l303.exe)
 DipDrv:  MaxL=1.
 Leave Link  303 at Wed Oct 28 10:09:46 2015, MaxMem=    33554432 cpu:               0.0 elap:               0.0
 (Enter /home/gauss/gdvi03p/gdv/l308.exe)
 Leave Link  308 at Wed Oct 28 10:09:46 2015, MaxMem=    33554432 cpu:               0.0 elap:               0.0
 (Enter /home/gauss/gdvi03p/gdv/l401.exe)
 ExpMin= 1.22D-01 ExpMax= 1.17D+04 ExpMxC= 4.01D+02 IAcc=1 IRadAn=         1 AccDes= 0.00D+00
 Harris functional with IExCor=  205 and IRadAn=       1 diagonalized for initial guess.
 HarFok:  IExCor=  205 AccDes= 0.00D+00 IRadAn=         1 IDoV= 1 UseB2=F ITyADJ=14
 ICtDFT=  3500011 ScaDFX=  1.000000  1.000000  1.000000  1.000000
 FoFCou: FMM=F IPFlag=           0 FMFlag=      100000 FMFlg1=           0
         NFxFlg=           0 DoJE=T BraDBF=F KetDBF=T FulRan=T
         wScrn=  0.000000 ICntrl=       500 IOpCl=  0 I1Cent=   200000004 NGrid=           0
         NMat0=    1 NMatS0=      1 NMatT0=    0 NMatD0=    1 NMtDS0=    0 NMtDT0=    0
 Petite list used in FoFCou.
 Harris En= -76.0876687667385    
 JPrj=0 DoOrth=F DoCkMO=F.
 Initial guess orbital symmetries:
       Occupied  (A1) (A1) (B2) (A1) (B1)
       Virtual   (A1) (B2) (B2) (A1) (B1) (A1) (B2) (A1) (A2) (B1)
                 (A1) (B2) (B2) (A1) (B1) (A2) (A1) (A1) (B2) (A1)
 The electronic state of the initial guess is 1-A1.
 Leave Link  401 at Wed Oct 28 10:09:47 2015, MaxMem=    33554432 cpu:               0.2 elap:               0.1
 (Enter /home/gauss/gdvi03p/gdv/l502.exe)
 Keep R1 ints in memory in symmetry-blocked form, NReq=886507.
 FoFCou: FMM=F IPFlag=           0 FMFlag=           0 FMFlg1=           0
         NFxFlg=           0 DoJE=F BraDBF=F KetDBF=F FulRan=T
         wScrn=  0.000000 ICntrl=       600 IOpCl=  0 I1Cent=           0 NGrid=           0
         NMat0=    1 NMatS0=    325 NMatT0=    0 NMatD0=    1 NMtDS0=    0 NMtDT0=    0
 Petite list used in FoFCou.
 Closed shell SCF:
 Using DIIS extrapolation, IDIIS=  1040.
 NGot=    33554432 LenX=    33536280 LenY=    33535214
 Requested convergence on RMS density matrix=1.00D-08 within 128 cycles.
 Requested convergence on MAX density matrix=1.00D-06.
 Requested convergence on             energy=1.00D-06.
 No special actions if energy rises.

 Cycle   1  Pass 1  IDiag  1:
 E= -75.9081697665012    
 DIIS: error= 7.47D-02 at cycle   1 NSaved=   1.
 NSaved= 1 IEnMin= 1 EnMin= -75.9081697665012     IErMin= 1 ErrMin= 7.47D-02
 ErrMax= 7.47D-02  0.00D+00 EMaxC= 1.00D-01 BMatC= 1.39D-01 BMatP= 1.39D-01
 IDIUse=3 WtCom= 2.53D-01 WtEn= 7.47D-01
 Coeff-Com:  0.100D+01
 Coeff-En:   0.100D+01
 Coeff:      0.100D+01
 Gap=     0.518 Goal=   None    Shift=    0.000
 GapD=    0.518 DampG=2.000 DampE=0.500 DampFc=1.0000 IDamp=-1.
 RMSDP=1.14D-02 MaxDP=1.18D-01              OVMax= 1.44D-01

 Cycle   2  Pass 1  IDiag  1:
 E= -75.9578170545368     Delta-E=       -0.049647288036 Rises=F Damp=F
 DIIS: error= 3.74D-02 at cycle   2 NSaved=   2.
 NSaved= 2 IEnMin= 2 EnMin= -75.9578170545368     IErMin= 2 ErrMin= 3.74D-02
 ErrMax= 3.74D-02  0.00D+00 EMaxC= 1.00D-01 BMatC= 4.87D-02 BMatP= 1.39D-01
 IDIUse=3 WtCom= 6.26D-01 WtEn= 3.74D-01
 Coeff-Com:  0.348D+00 0.652D+00
 Coeff-En:   0.178D+00 0.822D+00
 Coeff:      0.284D+00 0.716D+00
 Gap=     0.655 Goal=   None    Shift=    0.000
 RMSDP=5.63D-03 MaxDP=5.88D-02 DE=-4.96D-02 OVMax= 5.61D-02

 Cycle   3  Pass 1  IDiag  1:
 E= -75.9887646469683     Delta-E=       -0.030947592432 Rises=F Damp=F
 DIIS: error= 8.02D-03 at cycle   3 NSaved=   3.
 NSaved= 3 IEnMin= 3 EnMin= -75.9887646469683     IErMin= 3 ErrMin= 8.02D-03
 ErrMax= 8.02D-03  0.00D+00 EMaxC= 1.00D-01 BMatC= 1.70D-03 BMatP= 4.87D-02
 IDIUse=3 WtCom= 9.20D-01 WtEn= 8.02D-02
 Coeff-Com: -0.289D-01 0.126D+00 0.903D+00
 Coeff-En:   0.000D+00 0.000D+00 0.100D+01
 Coeff:     -0.265D-01 0.116D+00 0.910D+00
 Gap=     0.637 Goal=   None    Shift=    0.000
 RMSDP=9.83D-04 MaxDP=1.11D-02 DE=-3.09D-02 OVMax= 1.39D-02

 Cycle   4  Pass 1  IDiag  1:
 E= -75.9901424775054     Delta-E=       -0.001377830537 Rises=F Damp=F
 DIIS: error= 1.26D-03 at cycle   4 NSaved=   4.
 NSaved= 4 IEnMin= 4 EnMin= -75.9901424775054     IErMin= 4 ErrMin= 1.26D-03
 ErrMax= 1.26D-03  0.00D+00 EMaxC= 1.00D-01 BMatC= 2.86D-05 BMatP= 1.70D-03
 IDIUse=3 WtCom= 9.87D-01 WtEn= 1.26D-02
 Coeff-Com:  0.704D-02-0.662D-01-0.280D+00 0.134D+01
 Coeff-En:   0.000D+00 0.000D+00 0.000D+00 0.100D+01
 Coeff:      0.695D-02-0.653D-01-0.276D+00 0.133D+01
 Gap=     0.642 Goal=   None    Shift=    0.000
 RMSDP=2.10D-04 MaxDP=2.84D-03 DE=-1.38D-03 OVMax= 2.39D-03

 Cycle   5  Pass 1  IDiag  1:
 E= -75.9901775922142     Delta-E=       -0.000035114709 Rises=F Damp=F
 DIIS: error= 1.78D-04 at cycle   5 NSaved=   5.
 NSaved= 5 IEnMin= 5 EnMin= -75.9901775922142     IErMin= 5 ErrMin= 1.78D-04
 ErrMax= 1.78D-04  0.00D+00 EMaxC= 1.00D-01 BMatC= 5.06D-07 BMatP= 2.86D-05
 IDIUse=3 WtCom= 9.98D-01 WtEn= 1.78D-03
 Coeff-Com:  0.540D-03 0.153D-02-0.187D-02-0.161D+00 0.116D+01
 Coeff-En:   0.000D+00 0.000D+00 0.000D+00 0.000D+00 0.100D+01
 Coeff:      0.539D-03 0.153D-02-0.187D-02-0.160D+00 0.116D+01
 Gap=     0.642 Goal=   None    Shift=    0.000
 RMSDP=4.40D-05 MaxDP=5.22D-04 DE=-3.51D-05 OVMax= 5.69D-04

 Cycle   6  Pass 1  IDiag  1:
 E= -75.9901786933630     Delta-E=       -0.000001101149 Rises=F Damp=F
 DIIS: error= 3.33D-05 at cycle   6 NSaved=   6.
 NSaved= 6 IEnMin= 6 EnMin= -75.9901786933630     IErMin= 6 ErrMin= 3.33D-05
 ErrMax= 3.33D-05  0.00D+00 EMaxC= 1.00D-01 BMatC= 1.93D-08 BMatP= 5.06D-07
 IDIUse=1 WtCom= 1.00D+00 WtEn= 0.00D+00
 Coeff-Com: -0.344D-03 0.202D-02 0.107D-01-0.178D-01-0.274D+00 0.128D+01
 Coeff:     -0.344D-03 0.202D-02 0.107D-01-0.178D-01-0.274D+00 0.128D+01
 Gap=     0.642 Goal=   None    Shift=    0.000
 RMSDP=1.17D-05 MaxDP=1.08D-04 DE=-1.10D-06 OVMax= 1.65D-04

 Cycle   7  Pass 1  IDiag  1:
 E= -75.9901787459145     Delta-E=       -0.000000052552 Rises=F Damp=F
 DIIS: error= 7.20D-06 at cycle   7 NSaved=   7.
 NSaved= 7 IEnMin= 7 EnMin= -75.9901787459145     IErMin= 7 ErrMin= 7.20D-06
 ErrMax= 7.20D-06  0.00D+00 EMaxC= 1.00D-01 BMatC= 9.28D-10 BMatP= 1.93D-08
 IDIUse=1 WtCom= 1.00D+00 WtEn= 0.00D+00
 Coeff-Com:  0.157D-03-0.110D-02-0.555D-02 0.148D-01 0.110D+00-0.644D+00
 Coeff-Com:  0.153D+01
 Coeff:      0.157D-03-0.110D-02-0.555D-02 0.148D-01 0.110D+00-0.644D+00
 Coeff:      0.153D+01
 Gap=     0.642 Goal=   None    Shift=    0.000
 RMSDP=2.44D-06 MaxDP=2.74D-05 DE=-5.26D-08 OVMax= 3.87D-05

 Cycle   8  Pass 1  IDiag  1:
 E= -75.9901787490530     Delta-E=       -0.000000003138 Rises=F Damp=F
 DIIS: error= 1.65D-06 at cycle   8 NSaved=   8.
 NSaved= 8 IEnMin= 8 EnMin= -75.9901787490530     IErMin= 8 ErrMin= 1.65D-06
 ErrMax= 1.65D-06  0.00D+00 EMaxC= 1.00D-01 BMatC= 5.05D-11 BMatP= 9.28D-10
 IDIUse=1 WtCom= 1.00D+00 WtEn= 0.00D+00
 Coeff-Com: -0.278D-04 0.234D-03 0.117D-02-0.453D-02-0.135D-01 0.115D+00
 Coeff-Com: -0.484D+00 0.139D+01
 Coeff:     -0.278D-04 0.234D-03 0.117D-02-0.453D-02-0.135D-01 0.115D+00
 Coeff:     -0.484D+00 0.139D+01
 Gap=     0.642 Goal=   None    Shift=    0.000
 RMSDP=6.34D-07 MaxDP=5.34D-06 DE=-3.14D-09 OVMax= 1.01D-05

 Cycle   9  Pass 1  IDiag  1:
 E= -75.9901787492202     Delta-E=       -0.000000000167 Rises=F Damp=F
 DIIS: error= 2.35D-07 at cycle   9 NSaved=   9.
 NSaved= 9 IEnMin= 9 EnMin= -75.9901787492202     IErMin= 9 ErrMin= 2.35D-07
 ErrMax= 2.35D-07  0.00D+00 EMaxC= 1.00D-01 BMatC= 6.59D-13 BMatP= 5.05D-11
 IDIUse=1 WtCom= 1.00D+00 WtEn= 0.00D+00
 Coeff-Com:  0.253D-05-0.257D-04-0.136D-03 0.657D-03 0.102D-02-0.131D-01
 Coeff-Com:  0.820D-01-0.361D+00 0.129D+01
 Coeff:      0.253D-05-0.257D-04-0.136D-03 0.657D-03 0.102D-02-0.131D-01
 Coeff:      0.820D-01-0.361D+00 0.129D+01
 Gap=     0.642 Goal=   None    Shift=    0.000
 RMSDP=7.90D-08 MaxDP=5.17D-07 DE=-1.67D-10 OVMax= 1.26D-06

 Cycle  10  Pass 1  IDiag  1:
 E= -75.9901787492221     Delta-E=       -0.000000000002 Rises=F Damp=F
 DIIS: error= 2.06D-08 at cycle  10 NSaved=  10.
 NSaved=10 IEnMin=10 EnMin= -75.9901787492221     IErMin=10 ErrMin= 2.06D-08
 ErrMax= 2.06D-08  0.00D+00 EMaxC= 1.00D-01 BMatC= 7.43D-15 BMatP= 6.59D-13
 IDIUse=1 WtCom= 1.00D+00 WtEn= 0.00D+00
 Coeff-Com: -0.213D-06 0.294D-05 0.170D-04-0.103D-03-0.476D-04 0.160D-02
 Coeff-Com: -0.128D-01 0.616D-01-0.265D+00 0.121D+01
 Coeff:     -0.213D-06 0.294D-05 0.170D-04-0.103D-03-0.476D-04 0.160D-02
 Coeff:     -0.128D-01 0.616D-01-0.265D+00 0.121D+01
 Gap=     0.642 Goal=   None    Shift=    0.000
 RMSDP=6.58D-09 MaxDP=4.78D-08 DE=-1.93D-12 OVMax= 9.09D-08

 SCF Done:  E(RHF) =  -75.9901787492     A.U. after   10 cycles
            NFock= 10  Conv=0.66D-08     -V/T= 2.0062
 KE= 7.552488813210D+01 PE=-1.964836464046D+02 EE= 3.696621303765D+01
 Leave Link  502 at Wed Oct 28 10:09:47 2015, MaxMem=    33554432 cpu:               0.2 elap:               0.1
 (Enter /home/gauss/gdvi03p/gdv/l801.exe)
 Range of M.O.s used for correlation:     1    25
 NBasis=    25 NAE=     5 NBE=     5 NFC=     0 NFV=     0
 NROrb=     25 NOA=     5 NOB=     5 NVA=    20 NVB=    20
 Leave Link  801 at Wed Oct 28 10:09:47 2015, MaxMem=    33554432 cpu:               0.0 elap:               0.0
 (Enter /home/gauss/gdvi03p/gdv/l804.exe)
 Closed-shell transformation, MDV=    33554432 ITran=3 ISComp=1.
 Unit  1 TFree=         22905 TCopy=        180448.
 Semi-Direct transformation.
 ModeAB=           4 MOrb=             5 LenV=      33367179
 LASXX=        12955 LTotXX=       12955 LenRXX=       27830
 LTotAB=       14875 MaxLAS=       31500 LenRXY=           0
 NonZer=       40785 LenScr=      785920 LnRSAI=       31500
 LnScr1=      785920 LExtra=           0 Total=      1631170
 MaxDsk=          -1 SrtSym=           T ITran=            3
 DoSDTr:  NPSUse=  2
 JobTyp=0 Pass  1:  I=   1 to   5.
 (rs|ai) integrals will be sorted in core.
 Complete sort for first half transformation.
 First half transformation complete.
 Complete sort for second half transformation.
 Second half transformation complete.
 Spin components of T(2) and E(2):
     alpha-alpha T2 =       0.7057227673D-02 E2=     -0.2685064057D-01
     alpha-beta  T2 =       0.4499775910D-01 E2=     -0.1640496514D+00
     beta-beta   T2 =       0.7057227673D-02 E2=     -0.2685064057D-01
 ANorm=    0.1029131777D+01
 E2 =    -0.2177509325D+00 EUMP2 =    -0.76207929681724D+02
 Leave Link  804 at Wed Oct 28 10:09:47 2015, MaxMem=    33554432 cpu:               0.2 elap:               0.1
 (Enter /home/gauss/gdvi03p/gdv/l914.exe)
 RHF ground state
 MDV=    33554432 DFT=F DoStab=F Mixed=F DoRPA=F DoScal=F NonHer=F
 Making orbital integer symmetry assigments:
 Orbital symmetries:
       Occupied  (A1) (A1) (B2) (A1) (B1)
       Virtual   (A1) (B2) (B2) (A1) (A1) (B1) (B2) (A1) (A2) (B1)
                 (A1) (B2) (B2) (A1) (B1) (A2) (A1) (A1) (B2) (A1)
 FoFJK:  IHMeth= 1 ICntrl=       0 DoSepK=F KAlg= 0 I1Cent=           0 FoldK=F
 IRaf=         0 NMat=       1 IRICut=       1 DoRegI=T DoRafI=F ISym2E= 1 IDoP0=0 IntGTp=1.
 FoFCou: FMM=F IPFlag=           0 FMFlag=      100000 FMFlg1=           0
         NFxFlg=           0 DoJE=F BraDBF=F KetDBF=F FulRan=T
         wScrn=  0.000000 ICntrl=         0 IOpCl=  1 I1Cent=           0 NGrid=           0
         NMat0=    1 NMatS0=      1 NMatT0=    0 NMatD0=    1 NMtDS0=    0 NMtDT0=    0
 Petite list used in FoFCou.
    48 initial guesses have been made.
 Convergence on wavefunction:    0.001000000000000
 Davidson Disk Diagonalization:  ConvIn= 1.00D-03 SkipCon=T Conv= 1.00D-03.
 Max sub-space:   200 roots to seek:    48 dimension of matrix:          200
 Iteration     1 Dimension    48 NMult     0 NNew     48
 New state      2 was old state      3
 New state      3 was old state      2
 Excitation Energies [eV] at current iteration:
 Root      1 :     7.679731767718812
 Root      2 :     9.186825334843103
 Root      3 :    10.343384419752510
 Root      4 :    11.731691497295410
 Root      5 :    12.490522272953970
 Root      6 :    16.171221673666340
 Root      7 :    21.904837796131060
 Root      8 :    22.949033826732840
 Root      9 :    24.690669717180590
 Root     10 :    25.197704900194210
 Root     11 :    27.381702240263530
 Root     12 :    28.214921039119470
 Root     13 :    29.962443076484520
 Root     14 :    30.906696655710230
 Root     15 :    31.626771911320470
 Root     16 :    32.127566152945550
 Root     17 :    32.710610836229260
 Root     18 :    33.929339148139190
 Root     19 :    35.856285311034260
 Root     20 :    35.916187173426020
 Root     21 :    36.837483829055270
 Root     22 :    37.545739891067200
 Root     23 :    40.321927595223800
 Root     24 :    42.369977211214610
 Root     25 :    42.852475535530640
 Root     26 :    43.220477582698960
 Root     27 :    43.609049389290560
 Root     28 :    43.895773264457640
 Root     29 :    45.681840727752470
 Root     30 :    45.904042445174870
 Root     31 :    47.218228224520400
 Root     32 :    48.253548309224620
 Root     33 :    49.530770650963010
 Root     34 :    49.756293269875890
 Root     35 :    51.061294449483600
 Root     36 :    51.093134639915310
 Root     37 :    51.530674299743750
 Root     38 :    52.364157399267680
 Root     39 :    52.891240742367320
 Root     40 :    53.136636708375960
 Root     41 :    53.341069661723150
 Root     42 :    55.665268491083250
 Root     43 :    56.412168332627090
 Root     44 :    58.616165599665380
 Root     45 :    61.617528609845630
 Root     46 :    61.830464613703040
 Root     47 :    62.476606030493480
 Root     48 :    63.728074881579030
 Iteration     2 Dimension    95 NMult    48 NNew     47
 Root      1 not converged, maximum delta is    0.006184664005677
 Root      2 not converged, maximum delta is    0.004287205213305
 Root      3 not converged, maximum delta is    0.007071085975653
 Root      4 not converged, maximum delta is    0.006891253101447
 Root      5 not converged, maximum delta is    0.010435808037665
 Root      6 not converged, maximum delta is    0.015616403342405
 Root      7 not converged, maximum delta is    0.004651691431706
 Root      8 not converged, maximum delta is    0.008535151478870
 Root      9 not converged, maximum delta is    0.009972320936239
 Root     10 not converged, maximum delta is    0.009261476437303
 Root     11 not converged, maximum delta is    0.030843602505402
 Root     12 not converged, maximum delta is    0.031646356300157
 Excitation Energies [eV] at current iteration:
 Root      1 :     7.661948151688211   Change is   -0.017783616030601
 Root      2 :     9.182757059470443   Change is   -0.004068275372660
 Root      3 :    10.329440555420640   Change is   -0.013943864331875
 Root      4 :    11.707557422320870   Change is   -0.024134074974535
 Root      5 :    12.466549272739690   Change is   -0.023973000214278
 Root      6 :    16.110238117529530   Change is   -0.060983556136812
 Root      7 :    21.902448570243940   Change is   -0.002389225887125
 Root      8 :    22.922986652584840   Change is   -0.026047174148007
 Root      9 :    24.648950144326470   Change is   -0.041719572854122
 Root     10 :    25.176358109810900   Change is   -0.021346790383314
 Root     11 :    27.266909882589240   Change is   -0.114792357674289
 Root     12 :    28.091613069148500   Change is   -0.123307969970980
 Root     13 :    29.906778923379590   Change is   -0.055664153104927
 Root     14 :    30.888404748976460   Change is   -0.018291906733769
 Root     15 :    31.596142295250800   Change is   -0.030629616069669
 Root     16 :    32.103099010416690   Change is   -0.024467142528863
 Root     17 :    32.688374248884120   Change is   -0.022236587345144
 Root     18 :    33.927769015760970   Change is   -0.001570132378217
 Root     19 :    35.834405346511790   Change is   -0.021879964522473
 Root     20 :    35.880565878131310   Change is   -0.035621295294705
 Root     21 :    36.801860144162210   Change is   -0.035623684893060
 Root     22 :    37.420508441831240   Change is   -0.125231449235967
 Root     23 :    40.309358498914560   Change is   -0.012569096309248
 Root     24 :    42.286693067276810   Change is   -0.083284143937799
 Root     25 :    42.739888229407480   Change is   -0.112587306123156
 Root     26 :    43.175836219108260   Change is   -0.044641363590701
 Root     27 :    43.587335530835360   Change is   -0.021713858455199
 Root     28 :    43.849014017024520   Change is   -0.046759247433124
 Root     29 :    45.397597583187720   Change is   -0.284243144564758
 Root     30 :    45.720203603958840   Change is   -0.183838841216029
 Root     31 :    46.872544868143880   Change is   -0.345683356376514
 Root     32 :    48.243132116653090   Change is   -0.010416192571523
 Root     33 :    48.840170989280000   Change is   -0.690599661683009
 Root     34 :    49.614179429853070   Change is   -0.142113840022822
 Root     35 :    50.814298593103790   Change is   -0.278836046811526
 Root     36 :    50.896646365338460   Change is   -0.164648084145145
 Root     37 :    51.519585328851100   Change is   -0.011088970892651
 Root     38 :    52.315059226583530   Change is   -0.049098172684146
 Root     39 :    52.842093095561130   Change is   -0.049147646806190
 Root     40 :    53.076096820608610   Change is   -0.060539887767349
 Root     41 :    53.298469106196680   Change is   -0.042600555526469
 Root     42 :    55.516282395750200   Change is   -0.148986095333044
 Root     43 :    56.353814019774110   Change is   -0.058354312852989
 Root     44 :    58.604465856969280   Change is   -0.011699742696098
 Root     45 :    61.377971058959970   Change is   -0.239557550885661
 Root     46 :    61.424124195388100   Change is   -0.406340418314938
 Root     47 :    62.422783591250530   Change is   -0.053822439242948
 Root     48 :    62.736140976143820
 Iteration     3 Dimension   100 NMult    95 NNew      5
 Root      1 has converged.
 Root      2 has converged.
 Root      3 has converged.
 Root      4 has converged.
 Root      5 has converged.
 Root      6 has converged.
 Root      7 has converged.
 Root      8 has converged.
 Root      9 has converged.
 Root     10 has converged.
 Root     11 has converged.
 Root     12 has converged.
 Excitation Energies [eV] at current iteration:
 Root      1 :     7.661948151688168   Change is   -0.000000000000044
 Root      2 :     9.182757059470445   Change is    0.000000000000002
 Root      3 :    10.329440197708420   Change is   -0.000000357712217
 Root      4 :    11.707557369655810   Change is   -0.000000052665063
 Root      5 :    12.466549241805340   Change is   -0.000000030934349
 Root      6 :    16.110236924567050   Change is   -0.000001192962475
 Root      7 :    21.902448570243940   Change is   -0.000000000000003
 Root      8 :    22.922986652584840   Change is    0.000000000000006
 Root      9 :    24.648950041839010   Change is   -0.000000102487461
 Root     10 :    25.176357587343190   Change is   -0.000000522467708
 Root     11 :    27.266908161358550   Change is   -0.000001721230690
 Root     12 :    28.091612766364520   Change is   -0.000000302783981
 Convergence achieved on expansion vectors.
 ***********************************************************************
 Excited states from <AA,BB:AA,BB> singles matrix:
 ***********************************************************************
 
 1PDM for each excited state written to RWF  633
 Ground to excited state transition densities written to RWF  633
 Ground to excited state transition electric dipole moments (Au):
       state          X           Y           Z        Dip. S.      Osc.
         1         0.2598      0.0000      0.0000      0.0675      0.0127
         2         0.0000      0.0000      0.0000      0.0000      0.0000
         3         0.0000      0.0000      0.6449      0.4160      0.1053
         4         0.0000      0.4003      0.0000      0.1603      0.0460
         5         0.0000      1.3226      0.0000      1.7494      0.5343
         6         0.0000      0.0000      0.8510      0.7242      0.2858
         7         0.0000      0.0000      0.0000      0.0000      0.0000
         8         0.3928      0.0000      0.0000      0.1543      0.0866
         9         0.0000      0.3914      0.0000      0.1532      0.0925
        10         0.0000      0.0000      0.0130      0.0002      0.0001
        11         0.0000      0.0000      0.6061      0.3674      0.2454
        12         0.0000     -0.6795      0.0000      0.4618      0.3178
 Ground to excited state transition velocity dipole moments (Au):
       state          X           Y           Z        Dip. S.      Osc.
         1        -0.2097      0.0000      0.0000      0.0440      0.1041
         2         0.0000      0.0000      0.0000      0.0000      0.0000
         3         0.0000      0.0000     -0.2677      0.0717      0.1259
         4         0.0000     -0.1009      0.0000      0.0102      0.0158
         5         0.0000     -0.5332      0.0000      0.2843      0.4138
         6         0.0000      0.0000     -0.3922      0.1538      0.1732
         7         0.0000      0.0000      0.0000      0.0000      0.0000
         8        -0.2422      0.0000      0.0000      0.0587      0.0464
         9         0.0000     -0.2218      0.0000      0.0492      0.0362
        10         0.0000      0.0000     -0.0786      0.0062      0.0044
        11         0.0000      0.0000     -0.4125      0.1702      0.1132
        12         0.0000      0.4647      0.0000      0.2159      0.1394
 Ground to excited state transition magnetic dipole moments (Au):
       state          X           Y           Z
         1         0.0000      0.2931      0.0000
         2         0.0000      0.0000     -0.4185
         3         0.0000      0.0000      0.0000
         4         0.4696      0.0000      0.0000
         5        -0.0204      0.0000      0.0000
         6         0.0000      0.0000      0.0000
         7         0.0000      0.0000     -0.2117
         8         0.0000     -0.2206      0.0000
         9         0.5102      0.0000      0.0000
        10         0.0000      0.0000      0.0000
        11         0.0000      0.0000      0.0000
        12         0.0860      0.0000      0.0000
 Ground to excited state transition velocity quadrupole moments (Au):
       state          XX          YY          ZZ          XY          XZ          YZ
         1         0.0000      0.0000      0.0000      0.0000      0.0869      0.0000
         2         0.0000      0.0000      0.0000      0.2160      0.0000      0.0000
         3        -0.0332      0.0814      0.1764      0.0000      0.0000      0.0000
         4         0.0000      0.0000      0.0000      0.0000      0.0000      0.3238
         5         0.0000      0.0000      0.0000      0.0000      0.0000      0.5507
         6         0.0414      1.2217      0.3220      0.0000      0.0000      0.0000
         7         0.0000      0.0000      0.0000     -0.4394      0.0000      0.0000
         8         0.0000      0.0000      0.0000      0.0000      0.0422      0.0000
         9         0.0000      0.0000      0.0000      0.0000      0.0000     -0.1050
        10         0.3608     -0.4408      0.4040      0.0000      0.0000      0.0000
        11        -0.8195     -0.3980     -0.2265      0.0000      0.0000      0.0000
        12         0.0000      0.0000      0.0000      0.0000      0.0000     -0.7282
 <0|del|b> * <b|rxdel|0> + <0|del|b> * <b|delr+rdel|0>
 Rotatory Strengths (R) in cgs (10**-40 erg-esu-cm/Gauss)
       state          XX          YY          ZZ    R(velocity)    E-M Angle
         1         0.0000      0.0000      0.0000      0.0000       90.00
         2         0.0000      0.0000      0.0000      0.0000       90.00
         3         0.0000      0.0000      0.0000      0.0000       90.00
         4         0.0000      0.0000      0.0000      0.0000       90.00
         5         0.0000      0.0000      0.0000      0.0000       90.00
         6         0.0000      0.0000      0.0000      0.0000       90.00
         7         0.0000      0.0000      0.0000      0.0000       90.00
         8         0.0000      0.0000      0.0000      0.0000       90.00
         9         0.0000      0.0000      0.0000      0.0000       90.00
        10         0.0000      0.0000      0.0000      0.0000       90.00
        11         0.0000      0.0000      0.0000      0.0000       90.00
        12         0.0000      0.0000      0.0000      0.0000       90.00
 1/2[<0|r|b>*<b|rxdel|0> + (<0|rxdel|b>*<b|r|0>)*]
 Rotatory Strengths (R) in cgs (10**-40 erg-esu-cm/Gauss)
       state          XX          YY          ZZ     R(length)
         1         0.0000      0.0000      0.0000      0.0000
         2         0.0000      0.0000      0.0000      0.0000
         3         0.0000      0.0000      0.0000      0.0000
         4         0.0000      0.0000      0.0000      0.0000
         5         0.0000      0.0000      0.0000      0.0000
         6         0.0000      0.0000      0.0000      0.0000
         7         0.0000      0.0000      0.0000      0.0000
         8         0.0000      0.0000      0.0000      0.0000
         9         0.0000      0.0000      0.0000      0.0000
        10         0.0000      0.0000      0.0000      0.0000
        11         0.0000      0.0000      0.0000      0.0000
        12         0.0000      0.0000      0.0000      0.0000
  1/2[<0|del|b>*<b|r|0> + (<0|r|b>*<b|del|0>)*] (Au)
       state          X           Y           Z        Dip. S.   Osc.(frdel)
         1        -0.0545      0.0000      0.0000      0.0545      0.0363
         2         0.0000      0.0000      0.0000      0.0000      0.0000
         3         0.0000      0.0000     -0.1727      0.1727      0.1151
         4         0.0000     -0.0404      0.0000      0.0404      0.0269
         5         0.0000     -0.7053      0.0000      0.7053      0.4702
         6         0.0000      0.0000     -0.3338      0.3338      0.2225
         7         0.0000      0.0000      0.0000      0.0000      0.0000
         8        -0.0951      0.0000      0.0000      0.0951      0.0634
         9         0.0000     -0.0868      0.0000      0.0868      0.0579
        10         0.0000      0.0000     -0.0010      0.0010      0.0007
        11         0.0000      0.0000     -0.2500      0.2500      0.1667
        12         0.0000     -0.3158      0.0000      0.3158      0.2105

 Excitation energies and oscillator strengths:
 
 Excited State   1:      Singlet-B1     7.6619 eV  161.82 nm  f=0.0127  <S**2>=0.000
       5 ->  6         0.69542
       5 ->  9        -0.11218
 This state for optimization and/or second-order correction.
 Total Energy, E(CIS) =  -75.7086073355    
 Copying the excited state density for this state as the 1-particle RhoCI density.
 
 Excited State   2:      Singlet-A2     9.1828 eV  135.02 nm  f=0.0000  <S**2>=0.000
       5 ->  7         0.68385
       5 ->  8         0.15931
 
 Excited State   3:      Singlet-A1    10.3294 eV  120.03 nm  f=0.1053  <S**2>=0.000
       3 ->  7        -0.13689
       4 ->  6         0.68462
 
 Excited State   4:      Singlet-B2    11.7076 eV  105.90 nm  f=0.0460  <S**2>=0.000
       3 ->  6        -0.23432
       4 ->  7         0.65170
       4 ->  8         0.10781
 
 Excited State   5:      Singlet-B2    12.4665 eV   99.45 nm  f=0.5343  <S**2>=0.000
       3 ->  6         0.66027
       4 ->  7         0.23919
 
 Excited State   6:      Singlet-A1    16.1102 eV   76.96 nm  f=0.2858  <S**2>=0.000
       3 ->  7         0.67488
       4 ->  6         0.13819
       5 -> 11         0.11176
 
 Excited State   7:      Singlet-A2    21.9024 eV   56.61 nm  f=0.0000  <S**2>=0.000
       5 ->  7        -0.16194
       5 ->  8         0.68681
 
 Excited State   8:      Singlet-B1    22.9230 eV   54.09 nm  f=0.0866  <S**2>=0.000
       5 ->  6         0.11862
       5 ->  9         0.68852
 
 Excited State   9:      Singlet-B2    24.6490 eV   50.30 nm  f=0.0925  <S**2>=0.000
       3 ->  9         0.15384
       4 ->  7        -0.11133
       4 ->  8         0.67593
 
 Excited State  10:      Singlet-A1    25.1764 eV   49.25 nm  f=0.0001  <S**2>=0.000
       4 ->  9         0.68169
       5 -> 11        -0.10443
 
 Excited State  11:      Singlet-A1    27.2669 eV   45.47 nm  f=0.2454  <S**2>=0.000
       3 ->  8         0.67830
       5 -> 11         0.13986
 
 Excited State  12:      Singlet-B2    28.0916 eV   44.14 nm  f=0.3178  <S**2>=0.000
       3 ->  9         0.67098
       4 ->  8        -0.14872
 SavETr:  write IOETrn=   770 NScale= 10 NData=  16 NLR=1 NState=   12 LETran=     226.
 Leave Link  914 at Wed Oct 28 10:09:47 2015, MaxMem=    33554432 cpu:               0.3 elap:               0.1
 (Enter /home/gauss/gdvi03p/gdv/l601.exe)
 Copying SCF densities to generalized density rwf, IOpCl= 0 IROHF=0.

 **********************************************************************

            Population analysis using the SCF density.

 **********************************************************************

 Orbital symmetries:
       Occupied  (A1) (A1) (B2) (A1) (B1)
       Virtual   (A1) (B2) (B2) (A1) (A1) (B1) (B2) (A1) (A2) (B1)
                 (A1) (B2) (B2) (A1) (B1) (A2) (A1) (A1) (B2) (A1)
 The electronic state is 1-A1.
 Alpha  occ. eigenvalues --  -20.57590  -1.27793  -0.63028  -0.54205  -0.48700
 Alpha virt. eigenvalues --    0.15540   0.22929   0.70450   0.74404   1.16714
 Alpha virt. eigenvalues --    1.18606   1.26769   1.44120   1.45071   1.65819
 Alpha virt. eigenvalues --    1.75350   1.80401   2.14890   2.20005   3.17218
 Alpha virt. eigenvalues --    3.20929   3.32755   3.71531   3.98516   5.84319
          Condensed to atoms (all electrons):
               1          2          3
     1  O    7.815587   0.310092   0.310092
     2  H    0.310092   0.499943  -0.027922
     3  H    0.310092  -0.027922   0.499943
 Mulliken charges:
               1
     1  O   -0.435772
     2  H    0.217886
     3  H    0.217886
 Sum of Mulliken charges =   0.00000
 Mulliken charges with hydrogens summed into heavy atoms:
               1
     1  O    0.000000
 Electronic spatial extent (au):  <R**2>=             20.7151
 Charge=              0.0000 electrons
 Dipole moment (field-independent basis, Debye):
    X=              0.0000    Y=              0.0000    Z=             -2.1759  Tot=              2.1759
 Quadrupole moment (field-independent basis, Debye-Ang):
   XX=             -7.3518   YY=             -3.8546   ZZ=             -5.9135
   XY=              0.0000   XZ=              0.0000   YZ=              0.0000
 Traceless Quadrupole moment (field-independent basis, Debye-Ang):
   XX=             -1.6452   YY=              1.8520   ZZ=             -0.2069
   XY=              0.0000   XZ=              0.0000   YZ=              0.0000
 Octapole moment (field-independent basis, Debye-Ang**2):
  XXX=              0.0000  YYY=              0.0000  ZZZ=             -1.1041  XYY=              0.0000
  XXY=              0.0000  XXZ=             -0.1955  XZZ=              0.0000  YZZ=              0.0000
  YYZ=             -1.7594  XYZ=              0.0000
 Hexadecapole moment (field-independent basis, Debye-Ang**3):
 XXXX=             -5.2678 YYYY=             -6.6971 ZZZZ=             -6.8880 XXXY=              0.0000
 XXXZ=              0.0000 YYYX=              0.0000 YYYZ=              0.0000 ZZZX=              0.0000
 ZZZY=              0.0000 XXYY=             -2.4785 XXZZ=             -2.1197 YYZZ=             -1.6487
 XXYZ=              0.0000 YYXZ=              0.0000 ZZXY=              0.0000
 N-N= 8.002366485626D+00 E-N=-1.964836466284D+02  KE= 7.552488813210D+01
 Symmetry A1   KE= 6.773380982107D+01
 Symmetry A2   KE= 2.661799681143D-36
 Symmetry B1   KE= 4.603619786610D+00
 Symmetry B2   KE= 3.187458524423D+00
 Leave Link  601 at Wed Oct 28 10:09:47 2015, MaxMem=    33554432 cpu:               0.0 elap:               0.0
 (Enter /home/gauss/gdvi03p/gdv/l9999.exe)
 Unable to Open any file for archive entry.
 1\1\GINC-MEDUSA\SP\RCIS-Full\CC-pVDZ\H2O1\PLESTRAN\28-Oct-2015\0\\#p h
 f/cc-pvdz cis(full,nstates=12) 6D\\Water singlets\\0,1\O,0,0.,-0.07579
 18436,0.\H,0,0.866811829,0.6014357793,0.\H,0,-0.866811829,0.6014357793
 ,0.\\Version=ES64L-GDVRevI.03+\State=1-A1\HF=-75.9901787\MP2=-76.20792
 97\EFC=0.\RMSD=6.584e-09\PG=C02V [C2(O1),SGV(H2)]\\@
 The archive entry for this job was punched.


 THE CAUTIOUS SELDOM ERR...CONFUCIUS                   
 Job cpu time:       0 days  0 hours  0 minutes  1.9 seconds.
 Elapsed time:       0 days  0 hours  0 minutes  0.8 seconds.
 File lengths (MBytes):  RWF=     19 Int=      0 D2E=      0 Chk=      2 Scr=      1
 Normal termination of Gaussian DV at Wed Oct 28 10:09:47 2015.
 Initial command:
 /home/gauss/gdvi03p/gdv/l1.exe "/home/GauScr/Gau-18785.inp" -scrdir="/home/GauScr/"
 Entering Link 1 = /home/gauss/gdvi03p/gdv/l1.exe PID=     18833.
  
 Copyright (c) 1988,1990,1992,1993,1995,1998,2003,2009,2015,
            Gaussian, Inc.  All Rights Reserved.
  
 This is the private, development version of
 the Gaussian(R) DV system of programs. It is based on
 the Gaussian(R) 09 system (copyright 2009, Gaussian, Inc.),
 the Gaussian(R) 03 system (copyright 2003, Gaussian, Inc.),
 the Gaussian(R) 98 system (copyright 1998, Gaussian, Inc.),
 the Gaussian(R) 94 system (copyright 1995, Gaussian, Inc.),
 the Gaussian 92(TM) system (copyright 1992, Gaussian, Inc.),
 the Gaussian 90(TM) system (copyright 1990, Gaussian, Inc.),
 the Gaussian 88(TM) system (copyright 1988, Gaussian, Inc.),
 the Gaussian 86(TM) system (copyright 1986, Carnegie Mellon
 University), and the Gaussian 82(TM) system (copyright 1983,
 Carnegie Mellon University). Gaussian is a federally registered
 trademark of Gaussian, Inc.
  
 This software contains proprietary and confidential information,
 including trade secrets, belonging to Gaussian, Inc.
  
 This software is provided under written license and may be
 used, copied, transmitted, or stored only in accord with that
 written license.
  
 The following legend is applicable only to US Government
 contracts under FAR:
  
                    RESTRICTED RIGHTS LEGEND
  
 Use, reproduction and disclosure by the US Government is
 subject to restrictions as set forth in subparagraphs (a)
 and (c) of the Commercial Computer Software - Restricted
 Rights clause in FAR 52.227-19.
  
 Gaussian, Inc.
 340 Quinnipiac St., Bldg. 40, Wallingford CT 06492
  
  
 ---------------------------------------------------------------
 Warning -- This program may not be used in any manner that
 competes with the business of Gaussian, Inc. or will provide
 assistance to any competitor of Gaussian, Inc.  The licensee
 of this program is prohibited from giving any competitor of
 Gaussian, Inc. access to this program.  By using this program,
 the user acknowledges that Gaussian, Inc. is engaged in the
 business of creating and licensing software in the field of
 computational chemistry and represents and warrants to the
 licensee that it is not a competitor of Gaussian, Inc. and that
 it will not use this program in any manner prohibited above.
 ---------------------------------------------------------------
  

 Cite this work as:
 Gaussian Development Version, Revision I.03+,
 M. J. Frisch, G. W. Trucks, H. B. Schlegel, G. E. Scuseria, 
 M. A. Robb, J. R. Cheeseman, G. Scalmani, V. Barone, B. Mennucci, 
 G. A. Petersson, H. Nakatsuji, M. Caricato, X. Li, H. P. Hratchian, 
 J. Bloino, B. G. Janesko, A. F. Izmaylov, A. Marenich, F. Lipparini, 
 G. Zheng, J. L. Sonnenberg, W. Liang, M. Hada, M. Ehara, K. Toyota, 
 R. Fukuda, J. Hasegawa, M. Ishida, T. Nakajima, Y. Honda, O. Kitao, 
 H. Nakai, T. Vreven, K. Throssell, J. A. Montgomery, Jr., 
 J. E. Peralta, F. Ogliaro, M. Bearpark, J. J. Heyd, E. Brothers, 
 K. N. Kudin, V. N. Staroverov, T. Keith, R. Kobayashi, J. Normand, 
 K. Raghavachari, A. Rendell, J. C. Burant, S. S. Iyengar, J. Tomasi, 
 M. Cossi, N. Rega, J. M. Millam, M. Klene, J. E. Knox, J. B. Cross, 
 V. Bakken, C. Adamo, J. Jaramillo, R. Gomperts, R. E. Stratmann, 
 O. Yazyev, A. J. Austin, R. Cammi, C. Pomelli, J. W. Ochterski, 
 R. L. Martin, K. Morokuma, V. G. Zakrzewski, G. A. Voth, 
 P. Salvador, J. J. Dannenberg, S. Dapprich, P. V. Parandekar, 
 N. J. Mayhall, A. D. Daniels, O. Farkas, J. B. Foresman, 
 J. V. Ortiz, J. Cioslowski, and D. J. Fox, 
 Gaussian, Inc., Wallingford CT, 2014.
 
 *******************************************
 Gaussian DV:  ES64L-GDVRevI.03+  2-May-2015
                 28-Oct-2015 
 *******************************************
 %chk=h2o
 %nproc=2
 Will use up to    2 processors via shared memory.
 -------------------------------------------------------------------
 #p hf/cc-pvdz geom=check guess=read cis(full,nstates=12,triplet) 6D
 -------------------------------------------------------------------
 1/29=2,38=1,172=1/1;
 2/12=2,40=1/2;
 3/5=16,8=2,11=9,14=-4,25=1,30=1,116=-2/1,2,3,8;
 4/5=1/1;
 5/5=2,38=6/2;
 8/6=1,10=90,108=12/1,4;
 9/41=12,42=3,48=3/14;
 6/7=2,8=2,9=2,10=2/1;
 99/5=1,9=1/99;
 Leave Link    1 at Wed Oct 28 10:09:47 2015, MaxMem=           0 cpu:               0.1 elap:               0.0
 (Enter /home/gauss/gdvi03p/gdv/l101.exe)
 --------------
 Water triplets
 --------------
 Structure from the checkpoint file:  "h2o.chk"
 Charge =  0 Multiplicity = 1
 Z-Matrix found in chk file.
 O,0,0.,-0.0757918436,0.
 H,0,0.866811829,0.6014357793,0.
 H,0,-0.866811829,0.6014357793,0.
 Recover connectivity data from disk.
 ITRead=  0  0  0
 MicOpt= -1 -1 -1
 NAtoms=      3 NQM=        3 NQMF=       0 NMMI=      0 NMMIF=      0
                NMic=       0 NMicF=      0.
                    Isotopes and Nuclear Properties:
 (Nuclear quadrupole moments (NQMom) in fm**2, nuclear magnetic moments (NMagM)
  in nuclear magnetons)

  Atom         1           2           3
 IAtWgt=          16           1           1
 AtmWgt=  15.9949146   1.0078250   1.0078250
 NucSpn=           0           1           1
 AtZEff=   5.6000000   1.0000000   1.0000000
 NQMom=    0.0000000   0.0000000   0.0000000
 NMagM=    0.0000000   2.7928460   2.7928460
 AtZNuc=   8.0000000   1.0000000   1.0000000
 Leave Link  101 at Wed Oct 28 10:09:47 2015, MaxMem=    33554432 cpu:               0.2 elap:               0.1
 (Enter /home/gauss/gdvi03p/gdv/l202.exe)
                          Input orientation:                          
 ---------------------------------------------------------------------
 Center     Atomic      Atomic             Coordinates (Angstroms)
 Number     Number       Type             X           Y           Z
 ---------------------------------------------------------------------
      1          8           0        0.000000   -0.075792    0.000000
      2          1           0        0.866812    0.601436    0.000000
      3          1           0       -0.866812    0.601436    0.000000
 ---------------------------------------------------------------------
                    Distance matrix (angstroms):
                    1          2          3
     1  O    0.000000
     2  H    1.100000   0.000000
     3  H    1.100000   1.733624   0.000000
 Stoichiometry    H2O
 Framework group  C2V[C2(O),SGV(H2)]
 Deg. of freedom     2
 Full point group                 C2V     NOp   4
 RotChk:  IX=0 Diff= 8.24D-16
 Largest Abelian subgroup         C2V     NOp   4
 Largest concise Abelian subgroup C2      NOp   2
                         Standard orientation:                         
 ---------------------------------------------------------------------
 Center     Atomic      Atomic             Coordinates (Angstroms)
 Number     Number       Type             X           Y           Z
 ---------------------------------------------------------------------
      1          8           0        0.000000    0.000000    0.135446
      2          1           0        0.000000    0.866812   -0.541782
      3          1           0        0.000000   -0.866812   -0.541782
 ---------------------------------------------------------------------
 Rotational constants (GHZ):    615.5709784    333.6970768    216.3922350
 Leave Link  202 at Wed Oct 28 10:09:47 2015, MaxMem=    33554432 cpu:               0.0 elap:               0.0
 (Enter /home/gauss/gdvi03p/gdv/l301.exe)
 Standard basis: CC-pVDZ (6D, 7F)
 Ernie: Thresh=  0.10000D-02 Tol=  0.10000D-05 Strict=F.
 Ernie:  2 primitive shells out of 32 were deleted.
 There are    12 symmetry adapted cartesian basis functions of A1  symmetry.
 There are     2 symmetry adapted cartesian basis functions of A2  symmetry.
 There are     4 symmetry adapted cartesian basis functions of B1  symmetry.
 There are     7 symmetry adapted cartesian basis functions of B2  symmetry.
 There are    12 symmetry adapted basis functions of A1  symmetry.
 There are     2 symmetry adapted basis functions of A2  symmetry.
 There are     4 symmetry adapted basis functions of B1  symmetry.
 There are     7 symmetry adapted basis functions of B2  symmetry.
    25 basis functions,    47 primitive gaussians,    25 cartesian basis functions
     5 alpha electrons        5 beta electrons
       nuclear repulsion energy         8.0023664856 Hartrees.
 IExCor=    0 DFT=F Ex=HF Corr=None ExCW=0 ScaHFX=  1.000000
 ScaDFX=  1.000000  1.000000  1.000000  1.000000 ScalE2=  1.000000  1.000000
 IRadAn=      0 IRanWt=     -1 IRanGd=            0 ICorTp=0 IEmpDi=  4
 NAtoms=    3 NActive=    3 NUniq=    2 SFac= 2.25D+00 NAtFMM=   60 NAOKFM=F Big=F
 Integral buffers will be    131072 words long.
 Raffenetti 1 integral format.
 Two-electron integral symmetry is turned on.
 Leave Link  301 at Wed Oct 28 10:09:47 2015, MaxMem=    33554432 cpu:               0.1 elap:               0.1
 (Enter /home/gauss/gdvi03p/gdv/l302.exe)
 NPDir=0 NMtPBC=     1 NCelOv=     1 NCel=       1 NClECP=     1 NCelD=      1
         NCelK=      1 NCelE2=     1 NClLst=     1 CellRange=     0.0.
 One-electron integrals computed using PRISM.
 One-electron integral symmetry used in STVInt
 NBasis=    25 RedAO= T EigKep=  3.91D-02  NBF=    12     2     4     7
 NBsUse=    25 1.00D-06 EigRej= -1.00D+00 NBFU=    12     2     4     7
 Leave Link  302 at Wed Oct 28 10:09:48 2015, MaxMem=    33554432 cpu:               0.2 elap:               0.1
 (Enter /home/gauss/gdvi03p/gdv/l303.exe)
 DipDrv:  MaxL=1.
 Leave Link  303 at Wed Oct 28 10:09:48 2015, MaxMem=    33554432 cpu:               0.0 elap:               0.0
 (Enter /home/gauss/gdvi03p/gdv/l308.exe)
 Leave Link  308 at Wed Oct 28 10:09:48 2015, MaxMem=    33554432 cpu:               0.0 elap:               0.0
 (Enter /home/gauss/gdvi03p/gdv/l401.exe)
 Initial guess from the checkpoint file:  "h2o.chk"
 B after Tr=     0.000000    0.000000    0.000000
         Rot=    1.000000    0.000000    0.000000    0.000000 Ang=   0.00 deg.
 Guess basis will be translated and rotated to current coordinates.
 JPrj=2 DoOrth=T DoCkMO=T.
 Initial guess orbital symmetries:
       Occupied  (A1) (A1) (B2) (A1) (B1)
       Virtual   (A1) (B2) (B2) (A1) (A1) (B1) (B2) (A1) (A2) (B1)
                 (A1) (B2) (B2) (A1) (B1) (A2) (A1) (A1) (B2) (A1)
 The electronic state of the initial guess is 1-A1.
 Leave Link  401 at Wed Oct 28 10:09:48 2015, MaxMem=    33554432 cpu:               0.2 elap:               0.1
 (Enter /home/gauss/gdvi03p/gdv/l502.exe)
 Keep R1 ints in memory in symmetry-blocked form, NReq=886507.
 FoFCou: FMM=F IPFlag=           0 FMFlag=           0 FMFlg1=           0
         NFxFlg=           0 DoJE=F BraDBF=F KetDBF=F FulRan=T
         wScrn=  0.000000 ICntrl=       600 IOpCl=  0 I1Cent=           0 NGrid=           0
         NMat0=    1 NMatS0=    325 NMatT0=    0 NMatD0=    1 NMtDS0=    0 NMtDT0=    0
 Petite list used in FoFCou.
 Closed shell SCF:
 Using DIIS extrapolation, IDIIS=  1040.
 NGot=    33554432 LenX=    33536280 LenY=    33535214
 Requested convergence on RMS density matrix=1.00D-08 within 128 cycles.
 Requested convergence on MAX density matrix=1.00D-06.
 Requested convergence on             energy=1.00D-06.
 No special actions if energy rises.

 Cycle   1  Pass 1  IDiag  1:
 E= -75.9901787492221    
 DIIS: error= 1.46D-09 at cycle   1 NSaved=   1.
 NSaved= 1 IEnMin= 1 EnMin= -75.9901787492221     IErMin= 1 ErrMin= 1.46D-09
 ErrMax= 1.46D-09  0.00D+00 EMaxC= 1.00D-01 BMatC= 4.97D-17 BMatP= 4.97D-17
 IDIUse=1 WtCom= 1.00D+00 WtEn= 0.00D+00
 Coeff-Com:  0.100D+01
 Coeff:      0.100D+01
 Gap=     0.642 Goal=   None    Shift=    0.000
 RMSDP=4.26D-10 MaxDP=2.55D-09              OVMax= 5.75D-09

 SCF Done:  E(RHF) =  -75.9901787492     A.U. after    1 cycles
            NFock=  1  Conv=0.43D-09     -V/T= 2.0062
 KE= 7.552488812986D+01 PE=-1.964836466261D+02 EE= 3.696621326142D+01
 Leave Link  502 at Wed Oct 28 10:09:48 2015, MaxMem=    33554432 cpu:               0.2 elap:               0.1
 (Enter /home/gauss/gdvi03p/gdv/l801.exe)
 Range of M.O.s used for correlation:     1    25
 NBasis=    25 NAE=     5 NBE=     5 NFC=     0 NFV=     0
 NROrb=     25 NOA=     5 NOB=     5 NVA=    20 NVB=    20
 Leave Link  801 at Wed Oct 28 10:09:48 2015, MaxMem=    33554432 cpu:               0.0 elap:               0.0
 (Enter /home/gauss/gdvi03p/gdv/l804.exe)
 Closed-shell transformation, MDV=    33554432 ITran=3 ISComp=1.
 Unit  1 TFree=         22918 TCopy=        180444.
 Semi-Direct transformation.
 ModeAB=           4 MOrb=             5 LenV=      33367179
 LASXX=        12955 LTotXX=       12955 LenRXX=       27830
 LTotAB=       14875 MaxLAS=       31500 LenRXY=           0
 NonZer=       40785 LenScr=      785920 LnRSAI=       31500
 LnScr1=      785920 LExtra=           0 Total=      1631170
 MaxDsk=          -1 SrtSym=           T ITran=            3
 DoSDTr:  NPSUse=  2
 JobTyp=0 Pass  1:  I=   1 to   5.
 (rs|ai) integrals will be sorted in core.
 Complete sort for first half transformation.
 First half transformation complete.
 Complete sort for second half transformation.
 Second half transformation complete.
 Spin components of T(2) and E(2):
     alpha-alpha T2 =       0.7057227663D-02 E2=     -0.2685064056D-01
     alpha-beta  T2 =       0.4499775899D-01 E2=     -0.1640496512D+00
     beta-beta   T2 =       0.7057227663D-02 E2=     -0.2685064056D-01
 ANorm=    0.1029131777D+01
 E2 =    -0.2177509323D+00 EUMP2 =    -0.76207929681517D+02
 Leave Link  804 at Wed Oct 28 10:09:48 2015, MaxMem=    33554432 cpu:               0.2 elap:               0.1
 (Enter /home/gauss/gdvi03p/gdv/l914.exe)
 RHF ground state
 MDV=    33554432 DFT=F DoStab=F Mixed=F DoRPA=F DoScal=F NonHer=F
 Making orbital integer symmetry assigments:
 Orbital symmetries:
       Occupied  (A1) (A1) (B2) (A1) (B1)
       Virtual   (A1) (B2) (B2) (A1) (A1) (B1) (B2) (A1) (A2) (B1)
                 (A1) (B2) (B2) (A1) (B1) (A2) (A1) (A1) (B2) (A1)
 FoFJK:  IHMeth= 1 ICntrl=       0 DoSepK=F KAlg= 0 I1Cent=           0 FoldK=F
 IRaf=         0 NMat=       1 IRICut=       1 DoRegI=T DoRafI=F ISym2E= 1 IDoP0=0 IntGTp=1.
 FoFCou: FMM=F IPFlag=           0 FMFlag=      100000 FMFlg1=           0
         NFxFlg=           0 DoJE=F BraDBF=F KetDBF=F FulRan=T
         wScrn=  0.000000 ICntrl=         0 IOpCl=  1 I1Cent=           0 NGrid=           0
         NMat0=    1 NMatS0=      1 NMatT0=    0 NMatD0=    1 NMtDS0=    0 NMtDT0=    0
 Petite list used in FoFCou.
    48 initial guesses have been made.
 Convergence on wavefunction:    0.001000000000000
 Davidson Disk Diagonalization:  ConvIn= 1.00D-03 SkipCon=T Conv= 1.00D-03.
 Max sub-space:   576 roots to seek:    48 dimension of matrix:          200
 Iteration     1 Dimension    48 NMult     0 NNew     48
 New state      8 was old state      9
 New state      9 was old state      8
 Excitation Energies [eV] at current iteration:
 Root      1 :     6.623813103542622
 Root      2 :     8.061834513360374
 Root      3 :     8.449034985354563
 Root      4 :     9.266347880797845
 Root      5 :    11.140437489755280
 Root      6 :    12.110753422547890
 Root      7 :    21.640126085693530
 Root      8 :    22.040439343350070
 Root      9 :    22.186459365989080
 Root     10 :    22.270231447863160
 Root     11 :    25.180252091835580
 Root     12 :    25.334571704842720
 Root     13 :    26.323946314202610
 Root     14 :    28.724860277928240
 Root     15 :    29.471199562725680
 Root     16 :    29.586307841911060
 Root     17 :    30.752251102406540
 Root     18 :    31.843172180158380
 Root     19 :    33.091592394236830
 Root     20 :    34.922731954082810
 Root     21 :    35.058369147052050
 Root     22 :    35.329136529264770
 Root     23 :    37.588129093017950
 Root     24 :    39.234620791070350
 Root     25 :    40.337883902547820
 Root     26 :    40.555129503962380
 Root     27 :    41.979053866039420
 Root     28 :    42.065004960426020
 Root     29 :    42.568485938914150
 Root     30 :    43.138069711846700
 Root     31 :    43.900246260470840
 Root     32 :    46.002153500267930
 Root     33 :    46.082133815276470
 Root     34 :    48.242106975286750
 Root     35 :    48.665527344054920
 Root     36 :    49.842017651786220
 Root     37 :    50.240214996595080
 Root     38 :    51.225503234076810
 Root     39 :    51.257662657205520
 Root     40 :    51.353071611459390
 Root     41 :    52.547524761456480
 Root     42 :    53.859545449256460
 Root     43 :    55.328948581665830
 Root     44 :    58.174880685152350
 Root     45 :    58.896034816467100
 Root     46 :    59.590721780896540
 Root     47 :    60.542829260976380
 Root     48 :    61.660025406430740
 Iteration     2 Dimension    95 NMult    48 NNew     47
 Root      1 not converged, maximum delta is    0.010123770982557
 Root      2 not converged, maximum delta is    0.010090901365381
 Root      3 not converged, maximum delta is    0.013966910649436
 Root      4 not converged, maximum delta is    0.013352931896115
 Root      5 not converged, maximum delta is    0.007612628850406
 Root      6 not converged, maximum delta is    0.013936184779047
 Root      7 not converged, maximum delta is    0.007150960346558
 Root      8 not converged, maximum delta is    0.009311517479445
 Root      9 not converged, maximum delta is    0.009275706888576
 Root     10 not converged, maximum delta is    0.007492501739868
 Root     11 not converged, maximum delta is    0.016532377486769
 Root     12 not converged, maximum delta is    0.018742075754400
 Excitation Energies [eV] at current iteration:
 Root      1 :     6.596855458603944   Change is   -0.026957644938679
 Root      2 :     8.024991551946169   Change is   -0.036842961414206
 Root      3 :     8.408978675609514   Change is   -0.040056309745050
 Root      4 :     9.188989411730571   Change is   -0.077358469067273
 Root      5 :    11.110908390919120   Change is   -0.029529098836163
 Root      6 :    12.046158138638740   Change is   -0.064595283909155
 Root      7 :    21.628867935815820   Change is   -0.011258149877711
 Root      8 :    22.015456751486510   Change is   -0.024982591863557
 Root      9 :    22.165416531059480   Change is   -0.021042834929596
 Root     10 :    22.240302055675940   Change is   -0.029929392187226
 Root     11 :    25.146062143057330   Change is   -0.034189948778252
 Root     12 :    25.265868750883620   Change is   -0.068702953959097
 Root     13 :    26.207567991972450   Change is   -0.116378322230165
 Root     14 :    28.600821443657230   Change is   -0.124038834271014
 Root     15 :    29.322607477222880   Change is   -0.148592085502795
 Root     16 :    29.556646418833490   Change is   -0.029661423077568
 Root     17 :    30.713154300180180   Change is   -0.039096802226361
 Root     18 :    31.811615110611250   Change is   -0.031557069547128
 Root     19 :    33.074403326600340   Change is   -0.017189067636492
 Root     20 :    34.824561851385550   Change is   -0.098170102697259
 Root     21 :    34.979612340105630   Change is   -0.078756806946424
 Root     22 :    35.254685129126270   Change is   -0.074451400138509
 Root     23 :    37.447405881015040   Change is   -0.140723212002920
 Root     24 :    39.219458542980360   Change is   -0.015162248089995
 Root     25 :    40.318207051785300   Change is   -0.019676850762523
 Root     26 :    40.534302082267620   Change is   -0.020827421694764
 Root     27 :    41.846998622734400   Change is   -0.218006337691624
 Root     28 :    41.855776966692340   Change is   -0.123276899347081
 Root     29 :    42.243823113047190   Change is   -0.324662825866958
 Root     30 :    43.070261466123530   Change is   -0.067808245723177
 Root     31 :    43.777921894114540   Change is   -0.122324366356305
 Root     32 :    45.972065910762770   Change is   -0.030087589505157
 Root     33 :    46.047730842482030   Change is   -0.034402972794446
 Root     34 :    48.228227684927990   Change is   -0.013879290358765
 Root     35 :    48.610814140815010   Change is   -0.054713203239903
 Root     36 :    49.430973940370440   Change is   -0.411043711415779
 Root     37 :    50.147139071518660   Change is   -0.093075925076420
 Root     38 :    51.098413570167370   Change is   -0.127089663909434
 Root     39 :    51.111781664570420   Change is   -0.145880992635103
 Root     40 :    51.341703383300620   Change is   -0.011368228158773
 Root     41 :    52.480524070892070   Change is   -0.067000690564416
 Root     42 :    53.790824977609870   Change is   -0.068720471646597
 Root     43 :    55.193873350386890   Change is   -0.135075231278939
 Root     44 :    58.131106786151290   Change is   -0.043773899001059
 Root     45 :    58.829824705981690   Change is   -1.713004554994683
 Root     46 :    58.835295481710490   Change is   -0.060739334756610
 Root     47 :    58.862642955708350   Change is   -0.728078825188199
 Root     48 :    61.346797958433060   Change is   -0.313227447997674
 Iteration     3 Dimension   100 NMult    95 NNew      5
 Root      1 has converged.
 Root      2 has converged.
 Root      3 has converged.
 Root      4 has converged.
 Root      5 has converged.
 Root      6 has converged.
 Root      7 has converged.
 Root      8 has converged.
 Root      9 has converged.
 Root     10 has converged.
 Root     11 has converged.
 Root     12 has converged.
 Excitation Energies [eV] at current iteration:
 Root      1 :     6.596855458603914   Change is   -0.000000000000030
 Root      2 :     8.024990779817749   Change is   -0.000000772128419
 Root      3 :     8.408978675609537   Change is    0.000000000000024
 Root      4 :     9.188989406528526   Change is   -0.000000005202045
 Root      5 :    11.110908390910800   Change is   -0.000000000008320
 Root      6 :    12.046156906687310   Change is   -0.000001231951429
 Root      7 :    21.628867935815830   Change is    0.000000000000009
 Root      8 :    22.015456721018860   Change is   -0.000000030467645
 Root      9 :    22.165416531059460   Change is   -0.000000000000021
 Root     10 :    22.240301368223210   Change is   -0.000000687452728
 Root     11 :    25.146060838225090   Change is   -0.000001304832243
 Root     12 :    25.265868750861550   Change is   -0.000000000022072
 Convergence achieved on expansion vectors.
 ***********************************************************************
 Excited states from <AA,BB:AA,BB> singles matrix:
 ***********************************************************************
 
 1PDM for each excited state written to RWF  633
 Ground to excited state transition densities written to RWF  633
 Ground to excited state transition electric dipole moments (Au):
       state          X           Y           Z        Dip. S.      Osc.
         1         0.0000      0.0000      0.0000      0.0000      0.0000
         2         0.0000      0.0000      0.0000      0.0000      0.0000
         3         0.0000      0.0000      0.0000      0.0000      0.0000
         4         0.0000      0.0000      0.0000      0.0000      0.0000
         5         0.0000      0.0000      0.0000      0.0000      0.0000
         6         0.0000      0.0000      0.0000      0.0000      0.0000
         7         0.0000      0.0000      0.0000      0.0000      0.0000
         8         0.0000      0.0000      0.0000      0.0000      0.0000
         9         0.0000      0.0000      0.0000      0.0000      0.0000
        10         0.0000      0.0000      0.0000      0.0000      0.0000
        11         0.0000      0.0000      0.0000      0.0000      0.0000
        12         0.0000      0.0000      0.0000      0.0000      0.0000
 Ground to excited state transition velocity dipole moments (Au):
       state          X           Y           Z        Dip. S.      Osc.
         1         0.0000      0.0000      0.0000      0.0000      0.0000
         2         0.0000      0.0000      0.0000      0.0000      0.0000
         3         0.0000      0.0000      0.0000      0.0000      0.0000
         4         0.0000      0.0000      0.0000      0.0000      0.0000
         5         0.0000      0.0000      0.0000      0.0000      0.0000
         6         0.0000      0.0000      0.0000      0.0000      0.0000
         7         0.0000      0.0000      0.0000      0.0000      0.0000
         8         0.0000      0.0000      0.0000      0.0000      0.0000
         9         0.0000      0.0000      0.0000      0.0000      0.0000
        10         0.0000      0.0000      0.0000      0.0000      0.0000
        11         0.0000      0.0000      0.0000      0.0000      0.0000
        12         0.0000      0.0000      0.0000      0.0000      0.0000
 Ground to excited state transition magnetic dipole moments (Au):
       state          X           Y           Z
         1         0.0000      0.0000      0.0000
         2         0.0000      0.0000      0.0000
         3         0.0000      0.0000      0.0000
         4         0.0000      0.0000      0.0000
         5         0.0000      0.0000      0.0000
         6         0.0000      0.0000      0.0000
         7         0.0000      0.0000      0.0000
         8         0.0000      0.0000      0.0000
         9         0.0000      0.0000      0.0000
        10         0.0000      0.0000      0.0000
        11         0.0000      0.0000      0.0000
        12         0.0000      0.0000      0.0000
 Ground to excited state transition velocity quadrupole moments (Au):
       state          XX          YY          ZZ          XY          XZ          YZ
         1         0.0000      0.0000      0.0000      0.0000      0.0000      0.0000
         2         0.0000      0.0000      0.0000      0.0000      0.0000      0.0000
         3         0.0000      0.0000      0.0000      0.0000      0.0000      0.0000
         4         0.0000      0.0000      0.0000      0.0000      0.0000      0.0000
         5         0.0000      0.0000      0.0000      0.0000      0.0000      0.0000
         6         0.0000      0.0000      0.0000      0.0000      0.0000      0.0000
         7         0.0000      0.0000      0.0000      0.0000      0.0000      0.0000
         8         0.0000      0.0000      0.0000      0.0000      0.0000      0.0000
         9         0.0000      0.0000      0.0000      0.0000      0.0000      0.0000
        10         0.0000      0.0000      0.0000      0.0000      0.0000      0.0000
        11         0.0000      0.0000      0.0000      0.0000      0.0000      0.0000
        12         0.0000      0.0000      0.0000      0.0000      0.0000      0.0000
 <0|del|b> * <b|rxdel|0> + <0|del|b> * <b|delr+rdel|0>
 Rotatory Strengths (R) in cgs (10**-40 erg-esu-cm/Gauss)
       state          XX          YY          ZZ    R(velocity)    E-M Angle
         1         0.0000      0.0000      0.0000      0.0000       90.00
         2         0.0000      0.0000      0.0000      0.0000       90.00
         3         0.0000      0.0000      0.0000      0.0000       90.00
         4         0.0000      0.0000      0.0000      0.0000       90.00
         5         0.0000      0.0000      0.0000      0.0000       90.00
         6         0.0000      0.0000      0.0000      0.0000       90.00
         7         0.0000      0.0000      0.0000      0.0000       90.00
         8         0.0000      0.0000      0.0000      0.0000       90.00
         9         0.0000      0.0000      0.0000      0.0000       90.00
        10         0.0000      0.0000      0.0000      0.0000       90.00
        11         0.0000      0.0000      0.0000      0.0000       90.00
        12         0.0000      0.0000      0.0000      0.0000       90.00
 1/2[<0|r|b>*<b|rxdel|0> + (<0|rxdel|b>*<b|r|0>)*]
 Rotatory Strengths (R) in cgs (10**-40 erg-esu-cm/Gauss)
       state          XX          YY          ZZ     R(length)
         1         0.0000      0.0000      0.0000      0.0000
         2         0.0000      0.0000      0.0000      0.0000
         3         0.0000      0.0000      0.0000      0.0000
         4         0.0000      0.0000      0.0000      0.0000
         5         0.0000      0.0000      0.0000      0.0000
         6         0.0000      0.0000      0.0000      0.0000
         7         0.0000      0.0000      0.0000      0.0000
         8         0.0000      0.0000      0.0000      0.0000
         9         0.0000      0.0000      0.0000      0.0000
        10         0.0000      0.0000      0.0000      0.0000
        11         0.0000      0.0000      0.0000      0.0000
        12         0.0000      0.0000      0.0000      0.0000
  1/2[<0|del|b>*<b|r|0> + (<0|r|b>*<b|del|0>)*] (Au)
       state          X           Y           Z        Dip. S.   Osc.(frdel)
         1         0.0000      0.0000      0.0000      0.0000      0.0000
         2         0.0000      0.0000      0.0000      0.0000      0.0000
         3         0.0000      0.0000      0.0000      0.0000      0.0000
         4         0.0000      0.0000      0.0000      0.0000      0.0000
         5         0.0000      0.0000      0.0000      0.0000      0.0000
         6         0.0000      0.0000      0.0000      0.0000      0.0000
         7         0.0000      0.0000      0.0000      0.0000      0.0000
         8         0.0000      0.0000      0.0000      0.0000      0.0000
         9         0.0000      0.0000      0.0000      0.0000      0.0000
        10         0.0000      0.0000      0.0000      0.0000      0.0000
        11         0.0000      0.0000      0.0000      0.0000      0.0000
        12         0.0000      0.0000      0.0000      0.0000      0.0000

 Excitation energies and oscillator strengths:
 
 Excited State   1:      Triplet-B1     6.5969 eV  187.94 nm  f=0.0000  <S**2>=2.000
       5 ->  6         0.68905
       5 ->  9        -0.14014
 This state for optimization and/or second-order correction.
 Total Energy, E(CIS) =  -75.7477487718    
 Copying the excited state density for this state as the 1-particle RhoCI density.
 
 Excited State   2:      Triplet-A1     8.0250 eV  154.50 nm  f=0.0000  <S**2>=2.000
       3 ->  7         0.17617
       4 ->  6         0.65992
       4 ->  9        -0.14228
 
 Excited State   3:      Triplet-A2     8.4090 eV  147.44 nm  f=0.0000  <S**2>=2.000
       5 ->  7         0.67760
       5 ->  8         0.17763
 
 Excited State   4:      Triplet-B2     9.1890 eV  134.93 nm  f=0.0000  <S**2>=2.000
       3 ->  6         0.44836
       3 ->  9        -0.12422
       4 ->  7         0.50246
       4 ->  8         0.15604
 
 Excited State   5:      Triplet-B2    11.1109 eV  111.59 nm  f=0.0000  <S**2>=2.000
       3 ->  6         0.51670
       4 ->  7        -0.45255
       4 ->  8        -0.10691
 
 Excited State   6:      Triplet-A1    12.0462 eV  102.92 nm  f=0.0000  <S**2>=2.000
       3 ->  7         0.64351
       3 ->  8         0.18252
       4 ->  6        -0.20156
 
 Excited State   7:      Triplet-A2    21.6289 eV   57.32 nm  f=0.0000  <S**2>=2.000
       5 ->  7        -0.18128
       5 ->  8         0.68159
 
 Excited State   8:      Triplet-B2    22.0155 eV   56.32 nm  f=0.0000  <S**2>=2.000
       3 ->  9        -0.29358
       4 ->  7        -0.18245
       4 ->  8         0.60522
 
 Excited State   9:      Triplet-B1    22.1654 eV   55.94 nm  f=0.0000  <S**2>=2.000
       5 ->  6         0.14626
       5 ->  9         0.68347
 
 Excited State  10:      Triplet-A1    22.2403 eV   55.75 nm  f=0.0000  <S**2>=2.000
       3 ->  7         0.17419
       3 ->  8        -0.39790
       4 ->  6         0.12505
       4 ->  9         0.51976
 
 Excited State  11:      Triplet-A1    25.1461 eV   49.31 nm  f=0.0000  <S**2>=2.000
       3 ->  7        -0.11213
       3 ->  8         0.54147
       4 ->  9         0.39832
 
 Excited State  12:      Triplet-B2    25.2659 eV   49.07 nm  f=0.0000  <S**2>=2.000
       2 ->  7         0.11255
       3 ->  6         0.14043
       3 ->  9         0.60062
       4 ->  8         0.30236
 SavETr:  write IOETrn=   770 NScale= 10 NData=  16 NLR=1 NState=   12 LETran=     226.
 Leave Link  914 at Wed Oct 28 10:09:48 2015, MaxMem=    33554432 cpu:               0.3 elap:               0.1
 (Enter /home/gauss/gdvi03p/gdv/l601.exe)
 Copying SCF densities to generalized density rwf, IOpCl= 0 IROHF=0.

 **********************************************************************

            Population analysis using the SCF density.

 **********************************************************************

 Orbital symmetries:
       Occupied  (A1) (A1) (B2) (A1) (B1)
       Virtual   (A1) (B2) (B2) (A1) (A1) (B1) (B2) (A1) (A2) (B1)
                 (A1) (B2) (B2) (A1) (B1) (A2) (A1) (A1) (B2) (A1)
 The electronic state is 1-A1.
 Alpha  occ. eigenvalues --  -20.57590  -1.27793  -0.63028  -0.54205  -0.48700
 Alpha virt. eigenvalues --    0.15540   0.22929   0.70450   0.74404   1.16714
 Alpha virt. eigenvalues --    1.18606   1.26769   1.44120   1.45071   1.65819
 Alpha virt. eigenvalues --    1.75350   1.80401   2.14890   2.20005   3.17218
 Alpha virt. eigenvalues --    3.20929   3.32755   3.71531   3.98516   5.84319
          Condensed to atoms (all electrons):
               1          2          3
     1  O    7.815587   0.310092   0.310092
     2  H    0.310092   0.499943  -0.027922
     3  H    0.310092  -0.027922   0.499943
 Mulliken charges:
               1
     1  O   -0.435772
     2  H    0.217886
     3  H    0.217886
 Sum of Mulliken charges =   0.00000
 Mulliken charges with hydrogens summed into heavy atoms:
               1
     1  O    0.000000
 Electronic spatial extent (au):  <R**2>=             20.7151
 Charge=              0.0000 electrons
 Dipole moment (field-independent basis, Debye):
    X=              0.0000    Y=              0.0000    Z=             -2.1759  Tot=              2.1759
 Quadrupole moment (field-independent basis, Debye-Ang):
   XX=             -7.3518   YY=             -3.8546   ZZ=             -5.9135
   XY=              0.0000   XZ=              0.0000   YZ=              0.0000
 Traceless Quadrupole moment (field-independent basis, Debye-Ang):
   XX=             -1.6452   YY=              1.8520   ZZ=             -0.2069
   XY=              0.0000   XZ=              0.0000   YZ=              0.0000
 Octapole moment (field-independent basis, Debye-Ang**2):
  XXX=              0.0000  YYY=              0.0000  ZZZ=             -1.1041  XYY=              0.0000
  XXY=              0.0000  XXZ=             -0.1955  XZZ=              0.0000  YZZ=              0.0000
  YYZ=             -1.7594  XYZ=              0.0000
 Hexadecapole moment (field-independent basis, Debye-Ang**3):
 XXXX=             -5.2678 YYYY=             -6.6971 ZZZZ=             -6.8880 XXXY=              0.0000
 XXXZ=              0.0000 YYYX=              0.0000 YYYZ=              0.0000 ZZZX=              0.0000
 ZZZY=              0.0000 XXYY=             -2.4785 XXZZ=             -2.1197 YYZZ=             -1.6487
 XXYZ=              0.0000 YYXZ=              0.0000 ZZXY=              0.0000
 N-N= 8.002366485626D+00 E-N=-1.964836466119D+02  KE= 7.552488812986D+01
 Symmetry A1   KE= 6.773380983532D+01
 Symmetry A2   KE= 1.893932274070D-36
 Symmetry B1   KE= 4.603619772632D+00
 Symmetry B2   KE= 3.187458521903D+00
 Leave Link  601 at Wed Oct 28 10:09:48 2015, MaxMem=    33554432 cpu:               0.0 elap:               0.0
 (Enter /home/gauss/gdvi03p/gdv/l9999.exe)
 Unable to Open any file for archive entry.
 1\1\GINC-MEDUSA\SP\RCIS-Full\CC-pVDZ\H2O1\PLESTRAN\28-Oct-2015\0\\#p h
 f/cc-pvdz geom=check guess=read cis(full,nstates=12,triplet) 6D\\Water
  triplets\\0,1\O,0,0.,-0.0757918436,0.\H,0,0.866811829,0.6014357793,0.
 \H,0,-0.866811829,0.6014357793,0.\\Version=ES64L-GDVRevI.03+\State=1-A
 1\HF=-75.9901787\MP2=-76.2079297\EFC=0.\RMSD=4.259e-10\PG=C02V [C2(O1)
 ,SGV(H2)]\\@
 The archive entry for this job was punched.


 Happiness is a conscious choice, not an automatic response.
 -- Mildred Barthel
 Job cpu time:       0 days  0 hours  0 minutes  1.9 seconds.
 Elapsed time:       0 days  0 hours  0 minutes  0.8 seconds.
 File lengths (MBytes):  RWF=     19 Int=      0 D2E=      0 Chk=      2 Scr=      1
 Normal termination of Gaussian DV at Wed Oct 28 10:09:48 2015.
