 Entering Gaussian System, Link 0=gdv
 Input=h2o_ccpVDZ_CIS.com
 Output=h2o_ccpVDZ_CIS.log
 Initial command:
 /home/gauss/gdvi01p/gdv/l1.exe "/home/GauScr/Gau-16975.inp" -scrdir="/home/GauScr/"
 Entering Link 1 = /home/gauss/gdvi01p/gdv/l1.exe PID=     16976.
  
 Copyright (c) 1988,1990,1992,1993,1995,1998,2003,2009,2014,
            Gaussian, Inc.  All Rights Reserved.
  
 This is the private, development version of
 the Gaussian(R) DV system of programs. It is based on
 the Gaussian(R) 09 system (copyright 2009, Gaussian, Inc.),
 the Gaussian(R) 03 system (copyright 2003, Gaussian, Inc.),
 the Gaussian(R) 98 system (copyright 1998, Gaussian, Inc.),
 the Gaussian(R) 94 system (copyright 1995, Gaussian, Inc.),
 the Gaussian 92(TM) system (copyright 1992, Gaussian, Inc.),
 the Gaussian 90(TM) system (copyright 1990, Gaussian, Inc.),
 the Gaussian 88(TM) system (copyright 1988, Gaussian, Inc.),
 the Gaussian 86(TM) system (copyright 1986, Carnegie Mellon
 University), and the Gaussian 82(TM) system (copyright 1983,
 Carnegie Mellon University). Gaussian is a federally registered
 trademark of Gaussian, Inc.
  
 This software contains proprietary and confidential information,
 including trade secrets, belonging to Gaussian, Inc.
  
 This software is provided under written license and may be
 used, copied, transmitted, or stored only in accord with that
 written license.
  
 The following legend is applicable only to US Government
 contracts under FAR:
  
                    RESTRICTED RIGHTS LEGEND
  
 Use, reproduction and disclosure by the US Government is
 subject to restrictions as set forth in subparagraphs (a)
 and (c) of the Commercial Computer Software - Restricted
 Rights clause in FAR 52.227-19.
  
 Gaussian, Inc.
 340 Quinnipiac St., Bldg. 40, Wallingford CT 06492
  
  
 ---------------------------------------------------------------
 Warning -- This program may not be used in any manner that
 competes with the business of Gaussian, Inc. or will provide
 assistance to any competitor of Gaussian, Inc.  The licensee
 of this program is prohibited from giving any competitor of
 Gaussian, Inc. access to this program.  By using this program,
 the user acknowledges that Gaussian, Inc. is engaged in the
 business of creating and licensing software in the field of
 computational chemistry and represents and warrants to the
 licensee that it is not a competitor of Gaussian, Inc. and that
 it will not use this program in any manner prohibited above.
 ---------------------------------------------------------------
  

 Cite this work as:
 Gaussian Development Version, Revision I.01+,
 M. J. Frisch, G. W. Trucks, H. B. Schlegel, G. E. Scuseria, 
 M. A. Robb, J. R. Cheeseman, G. Scalmani, V. Barone, B. Mennucci, 
 G. A. Petersson, H. Nakatsuji, M. Caricato, X. Li, H. P. Hratchian, 
 A. F. Izmaylov, J. Bloino, B. G. Janesko, F. Lipparini, G. Zheng, 
 J. L. Sonnenberg, W. Liang, M. Hada, M. Ehara, K. Toyota, R. Fukuda, 
 J. Hasegawa, M. Ishida, T. Nakajima, Y. Honda, O. Kitao, H. Nakai, 
 T. Vreven, J. A. Montgomery, Jr., J. E. Peralta, F. Ogliaro, 
 M. Bearpark, J. J. Heyd, E. Brothers, K. N. Kudin, V. N. Staroverov, 
 T. Keith, R. Kobayashi, J. Normand, K. Raghavachari, A. Rendell, 
 J. C. Burant, S. S. Iyengar, J. Tomasi, M. Cossi, N. Rega, 
 J. M. Millam, M. Klene, J. E. Knox, J. B. Cross, V. Bakken, 
 C. Adamo, J. Jaramillo, R. Gomperts, R. E. Stratmann, O. Yazyev, 
 A. J. Austin, R. Cammi, C. Pomelli, J. W. Ochterski, R. L. Martin, 
 K. Morokuma, V. G. Zakrzewski, G. A. Voth, P. Salvador, 
 J. J. Dannenberg, S. Dapprich, P. V. Parandekar, N. J. Mayhall, 
 A. D. Daniels, O. Farkas, J. B. Foresman, J. V. Ortiz, 
 J. Cioslowski, and D. J. Fox, Gaussian, Inc., Wallingford CT, 2010.
 
 *******************************************
 Gaussian DV:  ES64L-GDVRevI.01+ 11-Sep-2014
                 22-Sep-2015 
 *******************************************
 ----------------------------------------------------------------
 #p hf/cc-pVDZ gfinput pop=full nosymm cis(full,nstates=12,50-50)
 ----------------------------------------------------------------
 1/38=1,172=1/1;
 2/12=2,15=1,17=6,18=5,40=1/2;
 3/5=16,11=9,24=10,25=1,30=1/1,2,8,3;
 4//1;
 5/5=2,38=5/2;
 8/6=1,10=90,108=12/1,4;
 9/41=12,42=3,48=2/14;
 6/7=3/1;
 99/5=1,9=1/99;
 Leave Link    1 at Tue Sep 22 14:54:30 2015, MaxMem=           0 cpu:               0.0 elap:               0.0
 (Enter /home/gauss/gdvi01p/gdv/l101.exe)
 -------------
 Water cc-pVDZ
 -------------
 Symbolic Z-matrix:
 Charge =  0 Multiplicity = 1
 O                     0.       -0.07579   0. 
 H                     0.86681   0.60144   0. 
 H                    -0.86681   0.60144   0. 
 
 ITRead=  0  0  0
 MicOpt= -1 -1 -1
 NAtoms=      3 NQM=        3 NQMF=       0 NMMI=      0 NMMIF=      0
                NMic=       0 NMicF=      0.
                    Isotopes and Nuclear Properties:
 (Nuclear quadrupole moments (NQMom) in fm**2, nuclear magnetic moments (NMagM)
  in nuclear magnetons)

  Atom         1           2           3
 IAtWgt=          16           1           1
 AtmWgt=  15.9949146   1.0078250   1.0078250
 NucSpn=           0           1           1
 AtZEff=   0.0000000   0.0000000   0.0000000
 NQMom=    0.0000000   0.0000000   0.0000000
 NMagM=    0.0000000   2.7928460   2.7928460
 AtZNuc=   8.0000000   1.0000000   1.0000000
 Leave Link  101 at Tue Sep 22 14:54:30 2015, MaxMem=    33554432 cpu:               0.1 elap:               0.1
 (Enter /home/gauss/gdvi01p/gdv/l202.exe)
                          Input orientation:                          
 ---------------------------------------------------------------------
 Center     Atomic      Atomic             Coordinates (Angstroms)
 Number     Number       Type             X           Y           Z
 ---------------------------------------------------------------------
      1          8           0        0.000000   -0.075792    0.000000
      2          1           0        0.866812    0.601436    0.000000
      3          1           0       -0.866812    0.601436    0.000000
 ---------------------------------------------------------------------
                    Distance matrix (angstroms):
                    1          2          3
     1  O    0.000000
     2  H    1.100000   0.000000
     3  H    1.100000   1.733624   0.000000
 Symmetry turned off by external request.
 Stoichiometry    H2O
 Framework group  C2V[C2(O),SGV(H2)]
 Deg. of freedom     2
 Full point group                 C2V     NOp   4
 Rotational constants (GHZ):    615.5709784    333.6970768    216.3922350
 Leave Link  202 at Tue Sep 22 14:54:31 2015, MaxMem=    33554432 cpu:               0.0 elap:               0.0
 (Enter /home/gauss/gdvi01p/gdv/l301.exe)
 Standard basis: CC-pVDZ (5D, 7F)
 Ernie: Thresh=  0.10000D-02 Tol=  0.10000D-05 Strict=F.
 Ernie:  2 primitive shells out of 32 were deleted.
 AO basis set in the form of general basis input (Overlap normalization):
      1 0
 S   7 1.00       0.000000000000
      0.1172000000D+05  0.7118644339D-03
      0.1759000000D+04  0.5485201992D-02
      0.4008000000D+03  0.2790992963D-01
      0.1137000000D+03  0.1051332075D+00
      0.3703000000D+02  0.2840024898D+00
      0.1327000000D+02  0.4516739459D+00
      0.5025000000D+01  0.2732081255D+00
 S   7 1.00       0.000000000000
      0.1172000000D+05  0.7690300460D-05
      0.4008000000D+03  0.3134845790D-03
      0.1137000000D+03 -0.2966148530D-02
      0.3703000000D+02 -0.1087535430D-01
      0.1327000000D+02 -0.1207538168D+00
      0.5025000000D+01 -0.1062752639D+00
      0.1013000000D+01  0.1095975478D+01
 S   1 1.00       0.000000000000
      0.3023000000D+00  0.1000000000D+01
 P   3 1.00       0.000000000000
      0.1770000000D+02  0.6267916628D-01
      0.3854000000D+01  0.3335365659D+00
      0.1046000000D+01  0.7412396416D+00
 P   1 1.00       0.000000000000
      0.2753000000D+00  0.1000000000D+01
 D   1 1.00       0.000000000000
      0.1185000000D+01  0.1000000000D+01
 ****
      2 0
 S   3 1.00       0.000000000000
      0.1301000000D+02  0.3349872639D-01
      0.1962000000D+01  0.2348008012D+00
      0.4446000000D+00  0.8136829579D+00
 S   1 1.00       0.000000000000
      0.1220000000D+00  0.1000000000D+01
 P   1 1.00       0.000000000000
      0.7270000000D+00  0.1000000000D+01
 ****
      3 0
 S   3 1.00       0.000000000000
      0.1301000000D+02  0.3349872639D-01
      0.1962000000D+01  0.2348008012D+00
      0.4446000000D+00  0.8136829579D+00
 S   1 1.00       0.000000000000
      0.1220000000D+00  0.1000000000D+01
 P   1 1.00       0.000000000000
      0.7270000000D+00  0.1000000000D+01
 ****

    24 basis functions,    47 primitive gaussians,    25 cartesian basis functions
     5 alpha electrons        5 beta electrons
       nuclear repulsion energy         8.0023664856 Hartrees.
 IExCor=    0 DFT=F Ex=HF Corr=None ExCW=0 ScaHFX=  1.000000
 ScaDFX=  1.000000  1.000000  1.000000  1.000000 ScalE2=  1.000000  1.000000
 IRadAn=      0 IRanWt=     -1 IRanGd=            0 ICorTp=0 IEmpDi=  4
 NAtoms=    3 NActive=    3 NUniq=    3 SFac= 1.00D+00 NAtFMM=   60 NAOKFM=F Big=F
 Integral buffers will be    131072 words long.
 Raffenetti 1 integral format.
 Two-electron integral symmetry is turned off.
 Leave Link  301 at Tue Sep 22 14:54:31 2015, MaxMem=    33554432 cpu:               0.1 elap:               0.1
 (Enter /home/gauss/gdvi01p/gdv/l302.exe)
 NPDir=0 NMtPBC=     1 NCelOv=     1 NCel=       1 NClECP=     1 NCelD=      1
         NCelK=      1 NCelE2=     1 NClLst=     1 CellRange=     0.0.
 One-electron integrals computed using PRISM.
 One-electron integral symmetry used in STVInt
 NBasis=    24 RedAO= T EigKep=  4.72D-02  NBF=    24
 NBsUse=    24 1.00D-06 EigRej= -1.00D+00 NBFU=    24
 Leave Link  302 at Tue Sep 22 14:54:31 2015, MaxMem=    33554432 cpu:               0.1 elap:               0.1
 (Enter /home/gauss/gdvi01p/gdv/l308.exe)
 Leave Link  308 at Tue Sep 22 14:54:31 2015, MaxMem=    33554432 cpu:               0.0 elap:               0.0
 (Enter /home/gauss/gdvi01p/gdv/l303.exe)
 DipDrv:  MaxL=1.
 Leave Link  303 at Tue Sep 22 14:54:31 2015, MaxMem=    33554432 cpu:               0.0 elap:               0.0
 (Enter /home/gauss/gdvi01p/gdv/l401.exe)
 ExpMin= 1.22D-01 ExpMax= 1.17D+04 ExpMxC= 4.01D+02 IAcc=1 IRadAn=         1 AccDes= 0.00D+00
 Harris functional with IExCor=  205 and IRadAn=       1 diagonalized for initial guess.
 HarFok:  IExCor=  205 AccDes= 0.00D+00 IRadAn=         1 IDoV= 1 UseB2=F ITyADJ=14
 ICtDFT=  3500011 ScaDFX=  1.000000  1.000000  1.000000  1.000000
 FoFCou: FMM=F IPFlag=           0 FMFlag=      100000 FMFlg1=           0
         NFxFlg=           0 DoJE=T BraDBF=F KetDBF=T FulRan=T
         wScrn=  0.000000 ICntrl=       500 IOpCl=  0 I1Cent=   200000004 NGrid=           0
         NMat0=    1 NMatS0=      1 NMatT0=    0 NMatD0=    1 NMtDS0=    0 NMtDT0=    0
 Symmetry not used in FoFCou.
 Harris En= -76.0846461527860    
 JPrj=0 DoOrth=F DoCkMO=F.
 Leave Link  401 at Tue Sep 22 14:54:31 2015, MaxMem=    33554432 cpu:               0.1 elap:               0.1
 (Enter /home/gauss/gdvi01p/gdv/l502.exe)
 Keep R1 ints in memory in canonical form, NReq=877069.
 FoFCou: FMM=F IPFlag=           0 FMFlag=           0 FMFlg1=           0
         NFxFlg=           0 DoJE=F BraDBF=F KetDBF=F FulRan=T
         wScrn=  0.000000 ICntrl=       600 IOpCl=  0 I1Cent=           0 NGrid=           0
         NMat0=    1 NMatS0=    300 NMatT0=    0 NMatD0=    1 NMtDS0=    0 NMtDT0=    0
 Symmetry not used in FoFCou.
 Two-electron integral symmetry not used.
 Closed shell SCF:
 Using DIIS extrapolation, IDIIS=  1040.
 NGot=    33554432 LenX=    33507504 LenY=    33506438
 Requested convergence on RMS density matrix=1.00D-08 within 128 cycles.
 Requested convergence on MAX density matrix=1.00D-06.
 Requested convergence on             energy=1.00D-06.
 No special actions if energy rises.

 Cycle   1  Pass 1  IDiag  1:
 E= -75.9096772167949    
 DIIS: error= 5.93D-02 at cycle   1 NSaved=   1.
 NSaved= 1 IEnMin= 1 EnMin= -75.9096772167949     IErMin= 1 ErrMin= 5.93D-02
 ErrMax= 5.93D-02  0.00D+00 EMaxC= 1.00D-01 BMatC= 1.11D-01 BMatP= 1.11D-01
 IDIUse=3 WtCom= 4.07D-01 WtEn= 5.93D-01
 Coeff-Com:  0.100D+01
 Coeff-En:   0.100D+01
 Coeff:      0.100D+01
 Gap=     0.519 Goal=   None    Shift=    0.000
 GapD=    0.519 DampG=2.000 DampE=0.500 DampFc=1.0000 IDamp=-1.
 RMSDP=1.17D-02 MaxDP=1.18D-01              OVMax= 1.44D-01

 Cycle   2  Pass 1  IDiag  1:
 E= -75.9572296545603     Delta-E=       -0.047552437765 Rises=F Damp=F
 DIIS: error= 3.76D-02 at cycle   2 NSaved=   2.
 NSaved= 2 IEnMin= 2 EnMin= -75.9572296545603     IErMin= 2 ErrMin= 3.76D-02
 ErrMax= 3.76D-02  0.00D+00 EMaxC= 1.00D-01 BMatC= 4.61D-02 BMatP= 1.11D-01
 IDIUse=3 WtCom= 6.24D-01 WtEn= 3.76D-01
 Coeff-Com:  0.381D+00 0.619D+00
 Coeff-En:   0.195D+00 0.805D+00
 Coeff:      0.311D+00 0.689D+00
 Gap=     0.651 Goal=   None    Shift=    0.000
 RMSDP=5.65D-03 MaxDP=5.68D-02 DE=-4.76D-02 OVMax= 5.43D-02

 Cycle   3  Pass 1  IDiag  1:
 E= -75.9888734836883     Delta-E=       -0.031643829128 Rises=F Damp=F
 DIIS: error= 6.49D-03 at cycle   3 NSaved=   3.
 NSaved= 3 IEnMin= 3 EnMin= -75.9888734836883     IErMin= 3 ErrMin= 6.49D-03
 ErrMax= 6.49D-03  0.00D+00 EMaxC= 1.00D-01 BMatC= 9.83D-04 BMatP= 4.61D-02
 IDIUse=3 WtCom= 9.35D-01 WtEn= 6.49D-02
 Coeff-Com: -0.386D-01 0.787D-01 0.960D+00
 Coeff-En:   0.000D+00 0.000D+00 0.100D+01
 Coeff:     -0.361D-01 0.736D-01 0.963D+00
 Gap=     0.640 Goal=   None    Shift=    0.000
 RMSDP=8.19D-04 MaxDP=9.34D-03 DE=-3.16D-02 OVMax= 1.17D-02

 Cycle   4  Pass 1  IDiag  1:
 E= -75.9897650925922     Delta-E=       -0.000891608904 Rises=F Damp=F
 DIIS: error= 1.11D-03 at cycle   4 NSaved=   4.
 NSaved= 4 IEnMin= 4 EnMin= -75.9897650925922     IErMin= 4 ErrMin= 1.11D-03
 ErrMax= 1.11D-03  0.00D+00 EMaxC= 1.00D-01 BMatC= 2.03D-05 BMatP= 9.83D-04
 IDIUse=3 WtCom= 9.89D-01 WtEn= 1.11D-02
 Coeff-Com:  0.650D-02-0.491D-01-0.288D+00 0.133D+01
 Coeff-En:   0.000D+00 0.000D+00 0.000D+00 0.100D+01
 Coeff:      0.643D-02-0.486D-01-0.285D+00 0.133D+01
 Gap=     0.643 Goal=   None    Shift=    0.000
 RMSDP=2.07D-04 MaxDP=2.60D-03 DE=-8.92D-04 OVMax= 2.19D-03

 Cycle   5  Pass 1  IDiag  1:
 E= -75.9897947510833     Delta-E=       -0.000029658491 Rises=F Damp=F
 DIIS: error= 1.66D-04 at cycle   5 NSaved=   5.
 NSaved= 5 IEnMin= 5 EnMin= -75.9897947510833     IErMin= 5 ErrMin= 1.66D-04
 ErrMax= 1.66D-04  0.00D+00 EMaxC= 1.00D-01 BMatC= 4.41D-07 BMatP= 2.03D-05
 IDIUse=3 WtCom= 9.98D-01 WtEn= 1.66D-03
 Coeff-Com:  0.847D-03 0.117D-02-0.371D-02-0.155D+00 0.116D+01
 Coeff-En:   0.000D+00 0.000D+00 0.000D+00 0.000D+00 0.100D+01
 Coeff:      0.845D-03 0.117D-02-0.370D-02-0.155D+00 0.116D+01
 Gap=     0.644 Goal=   None    Shift=    0.000
 RMSDP=4.41D-05 MaxDP=4.91D-04 DE=-2.97D-05 OVMax= 5.50D-04

 Cycle   6  Pass 1  IDiag  1:
 E= -75.9897957362561     Delta-E=       -0.000000985173 Rises=F Damp=F
 DIIS: error= 3.02D-05 at cycle   6 NSaved=   6.
 NSaved= 6 IEnMin= 6 EnMin= -75.9897957362561     IErMin= 6 ErrMin= 3.02D-05
 ErrMax= 3.02D-05  0.00D+00 EMaxC= 1.00D-01 BMatC= 1.82D-08 BMatP= 4.41D-07
 IDIUse=1 WtCom= 1.00D+00 WtEn= 0.00D+00
 Coeff-Com: -0.386D-03 0.134D-02 0.112D-01-0.157D-01-0.282D+00 0.129D+01
 Coeff:     -0.386D-03 0.134D-02 0.112D-01-0.157D-01-0.282D+00 0.129D+01
 Gap=     0.644 Goal=   None    Shift=    0.000
 RMSDP=1.13D-05 MaxDP=1.02D-04 DE=-9.85D-07 OVMax= 1.55D-04

 Cycle   7  Pass 1  IDiag  1:
 E= -75.9897957843301     Delta-E=       -0.000000048074 Rises=F Damp=F
 DIIS: error= 6.12D-06 at cycle   7 NSaved=   7.
 NSaved= 7 IEnMin= 7 EnMin= -75.9897957843301     IErMin= 7 ErrMin= 6.12D-06
 ErrMax= 6.12D-06  0.00D+00 EMaxC= 1.00D-01 BMatC= 8.84D-10 BMatP= 1.82D-08
 IDIUse=1 WtCom= 1.00D+00 WtEn= 0.00D+00
 Coeff-Com:  0.197D-03-0.846D-03-0.660D-02 0.151D-01 0.133D+00-0.747D+00
 Coeff-Com:  0.161D+01
 Coeff:      0.197D-03-0.846D-03-0.660D-02 0.151D-01 0.133D+00-0.747D+00
 Coeff:      0.161D+01
 Gap=     0.644 Goal=   None    Shift=    0.000
 RMSDP=2.53D-06 MaxDP=2.79D-05 DE=-4.81D-08 OVMax= 3.94D-05

 Cycle   8  Pass 1  IDiag  1:
 E= -75.9897957873920     Delta-E=       -0.000000003062 Rises=F Damp=F
 DIIS: error= 1.19D-06 at cycle   8 NSaved=   8.
 NSaved= 8 IEnMin= 8 EnMin= -75.9897957873920     IErMin= 8 ErrMin= 1.19D-06
 ErrMax= 1.19D-06  0.00D+00 EMaxC= 1.00D-01 BMatC= 3.21D-11 BMatP= 8.84D-10
 IDIUse=1 WtCom= 1.00D+00 WtEn= 0.00D+00
 Coeff-Com: -0.535D-04 0.259D-03 0.198D-02-0.589D-02-0.311D-01 0.206D+00
 Coeff-Com: -0.598D+00 0.143D+01
 Coeff:     -0.535D-04 0.259D-03 0.198D-02-0.589D-02-0.311D-01 0.206D+00
 Coeff:     -0.598D+00 0.143D+01
 Gap=     0.644 Goal=   None    Shift=    0.000
 RMSDP=5.38D-07 MaxDP=4.08D-06 DE=-3.06D-09 OVMax= 8.53D-06

 Cycle   9  Pass 1  IDiag  1:
 E= -75.9897957875003     Delta-E=       -0.000000000108 Rises=F Damp=F
 DIIS: error= 1.05D-07 at cycle   9 NSaved=   9.
 NSaved= 9 IEnMin= 9 EnMin= -75.9897957875003     IErMin= 9 ErrMin= 1.05D-07
 ErrMax= 1.05D-07  0.00D+00 EMaxC= 1.00D-01 BMatC= 2.64D-13 BMatP= 3.21D-11
 IDIUse=1 WtCom= 1.00D+00 WtEn= 0.00D+00
 Coeff-Com:  0.683D-05-0.345D-04-0.269D-03 0.886D-03 0.384D-02-0.279D-01
 Coeff-Com:  0.923D-01-0.308D+00 0.124D+01
 Coeff:      0.683D-05-0.345D-04-0.269D-03 0.886D-03 0.384D-02-0.279D-01
 Coeff:      0.923D-01-0.308D+00 0.124D+01
 Gap=     0.644 Goal=   None    Shift=    0.000
 RMSDP=5.59D-08 MaxDP=4.14D-07 DE=-1.08D-10 OVMax= 8.07D-07

 Cycle  10  Pass 1  IDiag  1:
 E= -75.9897957875010     Delta-E=       -0.000000000001 Rises=F Damp=F
 DIIS: error= 1.77D-08 at cycle  10 NSaved=  10.
 NSaved=10 IEnMin=10 EnMin= -75.9897957875010     IErMin=10 ErrMin= 1.77D-08
 ErrMax= 1.77D-08  0.00D+00 EMaxC= 1.00D-01 BMatC= 6.13D-15 BMatP= 2.64D-13
 IDIUse=1 WtCom= 1.00D+00 WtEn= 0.00D+00
 Coeff-Com: -0.792D-06 0.419D-05 0.345D-04-0.133D-03-0.415D-03 0.356D-02
 Coeff-Com: -0.134D-01 0.498D-01-0.255D+00 0.122D+01
 Coeff:     -0.792D-06 0.419D-05 0.345D-04-0.133D-03-0.415D-03 0.356D-02
 Coeff:     -0.134D-01 0.498D-01-0.255D+00 0.122D+01
 Gap=     0.644 Goal=   None    Shift=    0.000
 RMSDP=5.21D-09 MaxDP=3.55D-08 DE=-7.53D-13 OVMax= 6.96D-08

 SCF Done:  E(RHF) =  -75.9897957875     A.U. after   10 cycles
            NFock= 10  Conv=0.52D-08     -V/T= 2.0057
 KE= 7.556012802181D+01 PE=-1.965235353406D+02 EE= 3.697124504565D+01
 Leave Link  502 at Tue Sep 22 14:54:31 2015, MaxMem=    33554432 cpu:               0.1 elap:               0.1
 (Enter /home/gauss/gdvi01p/gdv/l801.exe)
 Range of M.O.s used for correlation:     1    24
 NBasis=    24 NAE=     5 NBE=     5 NFC=     0 NFV=     0
 NROrb=     24 NOA=     5 NOB=     5 NVA=    19 NVB=    19
 Leave Link  801 at Tue Sep 22 14:54:31 2015, MaxMem=    33554432 cpu:               0.0 elap:               0.0
 (Enter /home/gauss/gdvi01p/gdv/l804.exe)
 Closed-shell transformation, MDV=    33554432 ITran=3 ISComp=1.
 Unit  1 TFree=         20639 TCopy=        159035.
 Semi-Direct transformation.
 ModeAB=           2 MOrb=             5 LenV=      33368204
 LASXX=        11740 LTotXX=       11740 LenRXX=       11740
 LTotAB=       13525 MaxLAS=       39000 LenRXY=       39000
 NonZer=       42240 LenScr=      785920 LnRSAI=           0
 LnScr1=           0 LExtra=           0 Total=       836660
 MaxDsk=          -1 SrtSym=           F ITran=            3
 DoSDTr:  NPSUse=  1
 JobTyp=0 Pass  1:  I=   1 to   5.
 (rs|ai) integrals will be sorted in core.
 Complete sort for first half transformation.
 First half transformation complete.
 Complete sort for second half transformation.
 Second half transformation complete.
 Spin components of T(2) and E(2):
     alpha-alpha T2 =       0.7063706298D-02 E2=     -0.2653330174D-01
     alpha-beta  T2 =       0.4497598799D-01 E2=     -0.1612810041D+00
     beta-beta   T2 =       0.7063706298D-02 E2=     -0.2653330174D-01
 ANorm=    0.1029127495D+01
 E2 =    -0.2143476075D+00 EUMP2 =    -0.76204143395050D+02
 Leave Link  804 at Tue Sep 22 14:54:31 2015, MaxMem=    33554432 cpu:               0.1 elap:               0.1
 (Enter /home/gauss/gdvi01p/gdv/l914.exe)
 RHF ground state
 MDV=    33554432 DFT=F DoStab=F Mixed=F DoRPA=F DoScal=F NonHer=F
 Making orbital integer symmetry assigments:
 FoFJK:  IHMeth= 1 ICntrl=       0 DoSepK=F KAlg= 0 I1Cent=           0 FoldK=F
 IRaf=         0 NMat=       1 IRICut=       1 DoRegI=T DoRafI=F ISym2E= 0 IDoP0=0 IntGTp=1.
 FoFCou: FMM=F IPFlag=           0 FMFlag=      100000 FMFlg1=           0
         NFxFlg=           0 DoJE=F BraDBF=F KetDBF=F FulRan=T
         wScrn=  0.000000 ICntrl=         0 IOpCl=  1 I1Cent=           0 NGrid=           0
         NMat0=    1 NMatS0=      1 NMatT0=    0 NMatD0=    1 NMtDS0=    0 NMtDT0=    0
 Symmetry not used in FoFCou.
    96 initial guesses have been made.
 Convergence on wavefunction:    0.001000000000000
 Davidson Disk Diagonalization:  ConvIn= 1.00D-03 SkipCon=T Conv= 1.00D-03.
 Max sub-space:   384 roots to seek:    96 dimension of matrix:          190
 Iteration     1 Dimension    96 NMult     0 NNew     96
 New state      1 was old state      2
 New state      2 was old state      1
 New state      3 was old state      4
 New state      4 was old state      6
 New state      6 was old state      8
 New state      7 was old state      3
 New state      8 was old state     10
 New state      9 was old state      7
 New state     10 was old state     12
 New state     11 was old state      9
 New state     12 was old state     11
 New state     13 was old state     14
 New state     14 was old state     13
 New state     15 was old state     18
 New state     17 was old state     20
 New state     18 was old state     15
 New state     19 was old state     17
 New state     20 was old state     22
 New state     21 was old state     19
 New state     22 was old state     24
 New state     23 was old state     28
 New state     24 was old state     21
 New state     25 was old state     23
 New state     27 was old state     32
 New state     28 was old state     30
 New state     29 was old state     25
 New state     30 was old state     36
 New state     31 was old state     29
 New state     32 was old state     31
 New state     33 was old state     34
 New state     34 was old state     35
 New state     35 was old state     33
 New state     36 was old state     40
 New state     37 was old state     39
 New state     38 was old state     42
 New state     39 was old state     38
 New state     40 was old state     44
 New state     41 was old state     37
 New state     42 was old state     43
 New state     43 was old state     41
 New state     44 was old state     46
 New state     46 was old state     48
 New state     47 was old state     50
 New state     48 was old state     52
 Excitation Energies [eV] at current iteration:
 Root      1 :     6.635230436018543
 Root      2 :     7.696896685604236
 Root      3 :     8.063286083354843
 Root      4 :     8.443698291614997
 Root      5 :     9.181514191959442
 Root      6 :     9.269542946755063
 Root      7 :    10.355442221655050
 Root      8 :    11.142305296035150
 Root      9 :    11.726217009309660
 Root     10 :    12.105816426194540
 Root     11 :    12.507009817999700
 Root     12 :    16.179128018450880
 Root     13 :    21.630772657349980
 Root     14 :    21.895682201399750
 Root     15 :    22.034840646649900
 Root     16 :    22.177813360567730
 Root     17 :    22.284627340939550
 Root     18 :    22.941774186349100
 Root     19 :    24.682011071062480
 Root     20 :    25.170927916039750
 Root     21 :    25.191710068048630
 Root     22 :    25.333166414875840
 Root     23 :    26.375855400848800
 Root     24 :    27.304522952269410
 Root     25 :    28.212160949104940
 Root     26 :    28.797819192728940
 Root     27 :    29.471100753292050
 Root     28 :    29.677930691064590
 Root     29 :    29.988425669764040
 Root     30 :    30.941972148702590
 Root     31 :    30.981763017032070
 Root     32 :    31.624931895889630
 Root     33 :    31.839020423917420
 Root     34 :    32.187648333849770
 Root     35 :    32.710168687456690
 Root     36 :    33.089202155688420
 Root     37 :    33.926665519362660
 Root     38 :    34.951737553005740
 Root     39 :    35.058400885090940
 Root     40 :    35.329478630425300
 Root     41 :    35.856923033632260
 Root     42 :    35.927554166756150
 Root     43 :    36.877753066161220
 Root     44 :    37.589636723474580
 Root     45 :    37.592902413843670
 Root     46 :    40.267780461918390
 Root     47 :    40.548352312363310
 Root     48 :    41.086583858994550
 Root     49 :    41.165597922505100
 Root     50 :    42.057199164451360
 Root     51 :    42.087981174837760
 Root     52 :    42.433904053988530
 Root     53 :    42.567608118443230
 Root     54 :    43.147781611525790
 Root     55 :    43.214574138072050
 Root     56 :    43.544800489401410
 Root     57 :    43.603370777587300
 Root     58 :    43.932279598350810
 Root     59 :    44.601535721017580
 Root     60 :    46.058153073198740
 Root     61 :    46.086868412430500
 Root     62 :    46.437917498341460
 Root     63 :    47.160852394218600
 Root     64 :    47.479650308451110
 Root     65 :    48.296067920241510
 Root     66 :    49.221615564787920
 Root     67 :    49.839127681259510
 Root     68 :    50.224828915775250
 Root     69 :    50.367092986760610
 Root     70 :    50.933160167799710
 Root     71 :    51.058748907379530
 Root     72 :    51.347070214243220
 Root     73 :    51.525030482874750
 Root     74 :    51.603564705670560
 Root     75 :    51.767041094540130
 Root     76 :    52.333052435792240
 Root     77 :    53.115017581481180
 Root     78 :    53.118688686726040
 Root     79 :    53.191176455896160
 Root     80 :    53.233384934751430
 Root     81 :    53.323870008838700
 Root     82 :    54.362854381658510
 Root     83 :    55.002462976410210
 Root     84 :    55.686429542112260
 Root     85 :    56.153718077884390
 Root     86 :    56.696745331364590
 Root     87 :    58.168377990985110
 Root     88 :    58.609709392637170
 Root     89 :    58.891512623473790
 Root     90 :    59.550205370745440
 Root     91 :    59.614265963387670
 Root     92 :    61.619171140511460
 Root     93 :    61.846441071106060
 Root     94 :    62.578842081465130
 Root     95 :    62.642900518658910
 Root     96 :    64.796519662266220
 Iteration     2 Dimension   188 NMult    96 NNew     92
 Root      1 not converged, maximum delta is    0.010097621037046
 Root      2 not converged, maximum delta is    0.006171149397140
 Root      3 not converged, maximum delta is    0.007159976937128
 Root      4 not converged, maximum delta is    0.013965966322822
 Root      5 not converged, maximum delta is    0.004284593672470
 Root      6 not converged, maximum delta is    0.013352265878211
 Root      7 not converged, maximum delta is    0.008911173524305
 Root      8 not converged, maximum delta is    0.007660085452053
 Root      9 not converged, maximum delta is    0.006925920614595
 Root     10 not converged, maximum delta is    0.011861281857668
 Root     11 not converged, maximum delta is    0.010086197320581
 Root     12 not converged, maximum delta is    0.019700328207145
 Root     13 not converged, maximum delta is    0.007154832806031
 Root     14 not converged, maximum delta is    0.004651942298157
 Root     15 not converged, maximum delta is    0.009304432768290
 Root     16 not converged, maximum delta is    0.009292310428160
 Root     17 not converged, maximum delta is    0.016498212479149
 Root     18 not converged, maximum delta is    0.008559598570725
 Root     19 not converged, maximum delta is    0.009973007744377
 Root     20 not converged, maximum delta is    0.014586211932608
 Root     21 not converged, maximum delta is    0.009325076965184
 Root     22 not converged, maximum delta is    0.018787217580563
 Root     23 not converged, maximum delta is    0.031016799365293
 Root     24 not converged, maximum delta is    0.010406322831575
 Root     25 not converged, maximum delta is    0.031577929749894
 Root     26 not converged, maximum delta is    0.026943067736797
 Root     27 not converged, maximum delta is    0.024103524912178
 Root     28 not converged, maximum delta is    0.009505676931513
 Root     29 not converged, maximum delta is    0.019378405965015
 Root     30 not converged, maximum delta is    0.035075308270184
 Root     31 not converged, maximum delta is    0.007629189116958
 Root     32 not converged, maximum delta is    0.010180380263369
 Root     33 not converged, maximum delta is    0.015383406741228
 Root     34 not converged, maximum delta is    0.016990166850101
 Root     35 not converged, maximum delta is    0.008483360403228
 Root     36 not converged, maximum delta is    0.010952240536826
 Root     37 not converged, maximum delta is    0.002898412431125
 Root     38 not converged, maximum delta is    0.065922174872431
 Root     39 not converged, maximum delta is    0.033628431191306
 Root     40 not converged, maximum delta is    0.067538732452171
 Root     41 not converged, maximum delta is    0.016673579481506
 Root     42 not converged, maximum delta is    0.017770445214829
 Root     43 not converged, maximum delta is    0.009658499865258
 New state     44 was old state     45
 Root     44 not converged, maximum delta is    0.031503600761857
 New state     45 was old state     44
 Root     45 not converged, maximum delta is    0.038038368831332
 Root     46 not converged, maximum delta is    0.008007222797338
 Root     47 not converged, maximum delta is    0.012511485954258
 Root     48 not converged, maximum delta is    0.015057556516622
 Excitation Energies [eV] at current iteration:
 Root      1 :     6.608904953924010   Change is   -0.026325482094533
 Root      2 :     7.680309415998718   Change is   -0.016587269605518
 Root      3 :     8.040183441796348   Change is   -0.023102641558496
 Root      4 :     8.403640937836022   Change is   -0.040057353778976
 Root      5 :     9.177443670662161   Change is   -0.004070521297280
 Root      6 :     9.193928569416988   Change is   -0.075614377338076
 Root      7 :    10.337090122835670   Change is   -0.018352098819380
 Root      8 :    11.113689371321120   Change is   -0.028615924714022
 Root      9 :    11.702084389755710   Change is   -0.024132619553954
 Root     10 :    12.044410441942630   Change is   -0.061405984251918
 Root     11 :    12.486663032625090   Change is   -0.020346785374609
 Root     12 :    16.104601713160950   Change is   -0.074526305289931
 Root     13 :    21.619502295472190   Change is   -0.011270361877789
 Root     14 :    21.893289787683550   Change is   -0.002392413716205
 Root     15 :    22.009900883872210   Change is   -0.024939762777692
 Root     16 :    22.156903867527840   Change is   -0.020909493039883
 Root     17 :    22.234058900501140   Change is   -0.050568440438418
 Root     18 :    22.915780396158270   Change is   -0.025993790190825
 Root     19 :    24.640321615069560   Change is   -0.041689455992915
 Root     20 :    25.137762819203640   Change is   -0.033165096836114
 Root     21 :    25.172746565111190   Change is   -0.018963502937440
 Root     22 :    25.265051426818390   Change is   -0.068114988057449
 Root     23 :    26.208479353354980   Change is   -0.167376047493811
 Root     24 :    27.261498727323570   Change is   -0.043024224945840
 Root     25 :    28.090948126126860   Change is   -0.121212822978080
 Root     26 :    28.636243286350450   Change is   -0.161575906378491
 Root     27 :    29.323131027440840   Change is   -0.147969725851205
 Root     28 :    29.649308629490170   Change is   -0.028622061574424
 Root     29 :    29.930231320295760   Change is   -0.058194349468280
 Root     30 :    30.806649145537940   Change is   -0.135323003164649
 Root     31 :    30.964685565578770   Change is   -0.017077451453298
 Root     32 :    31.594044671873270   Change is   -0.030887224016363
 Root     33 :    31.808514540188070   Change is   -0.030505883729352
 Root     34 :    32.139558077208220   Change is   -0.048090256641555
 Root     35 :    32.687800946931870   Change is   -0.022367740524814
 Root     36 :    33.072031892777180   Change is   -0.017170262911244
 Root     37 :    33.925093754318060   Change is   -0.001571765044602
 Root     38 :    34.855923304142410   Change is   -0.095814248863330
 Root     39 :    34.979519168196490   Change is   -0.078881716894449
 Root     40 :    35.252729053318110   Change is   -0.076749577107186
 Root     41 :    35.835065745618880   Change is   -0.021857288013379
 Root     42 :    35.892937947952760   Change is   -0.034616218803386
 Root     43 :    36.842395522489360   Change is   -0.035357543671858
 Root     44 :    37.464516763725180   Change is   -0.128385650118487
 Root     45 :    37.469119193216250   Change is   -0.120517530258333
 Root     46 :    40.253792814610080   Change is   -0.013987647308313
 Root     47 :    40.527738052720360   Change is   -0.020614259642953
 Root     48 :    41.061182410731870   Change is   -0.025401448262675
 Root     49 :    41.155405574634600   Change is   -0.010192347870502
 Root     50 :    41.839535262506080   Change is   -0.217663901945285
 Root     51 :    41.981729589761220   Change is   -0.106251585076546
 Root     52 :    42.241728682870680   Change is   -0.325879435572553
 Root     53 :    42.338462034728670   Change is   -0.095442019259867
 Root     54 :    43.076470811217880   Change is   -0.071310800307906
 Root     55 :    43.170164663486750   Change is   -0.044409474585300
 Root     56 :    43.436009464679860   Change is   -0.108791024721542
 Root     57 :    43.582436083521220   Change is   -0.020934694066080
 Root     58 :    43.909438571119100   Change is   -0.022841027231708
 Root     59 :    44.450142667205800   Change is   -0.151393053811785
 Root     60 :    45.857559271084230   Change is   -0.200593802114498
 Root     61 :    46.043643679085940   Change is   -0.043224733344561
 Root     62 :    46.169531267295130   Change is   -0.268386231046331
 Root     63 :    46.874402125343410   Change is   -0.286450268875192
 Root     64 :    47.442978814825460   Change is   -0.036671493625654
 Root     65 :    48.274973635114990   Change is   -0.021094285126516
 Root     66 :    49.139729116156620   Change is   -0.081886448631297
 Root     67 :    49.427817599785700   Change is   -0.411310081473805
 Root     68 :    49.511457691732130   Change is   -0.855635295028475
 Root     69 :    50.135817465860870   Change is   -0.089011449914382
 Root     70 :    50.894299530980040   Change is   -0.164449376399496
 Root     71 :    50.902774305844840   Change is   -0.030385861954874
 Root     72 :    51.335679978148120   Change is   -0.011390236095103
 Root     73 :    51.513804727432210   Change is   -0.011225755442545
 Root     74 :    51.519707292243430   Change is   -0.083857413427124
 Root     75 :    51.649051090369300   Change is   -0.117990004170824
 Root     76 :    51.927967812276210   Change is   -0.405084623516023
 Root     77 :    53.007104955191590   Change is   -0.111583731534449
 Root     78 :    53.071169559970490   Change is   -0.043848021510695
 Root     79 :    53.124766367116040   Change is   -0.108618567635391
 Root     80 :    53.132172160666430   Change is   -0.059004295229726
 Root     81 :    53.278402932199400   Change is   -0.045467076639297
 Root     82 :    54.079925660481460   Change is   -0.282928721177045
 Root     83 :    54.973523378576300   Change is   -0.028939597833902
 Root     84 :    55.533360842983380   Change is   -0.153068699128875
 Root     85 :    55.940738699845530   Change is   -0.212979378038869
 Root     86 :    56.642336234176700   Change is   -0.054409097187899
 Root     87 :    58.124636334123310   Change is   -0.043741656861797
 Root     88 :    58.598034532195600   Change is   -0.011674860441576
 Root     89 :    58.836366309913470   Change is   -0.055146313560318
 Root     90 :    58.916008470147520   Change is   -0.634196900597922
 Root     91 :    58.950253269806910   Change is   -0.664012693580761
 Root     92 :    61.379208927662790   Change is   -0.239962212848665
 Root     93 :    61.435460156625950   Change is   -0.410980914480106
 Root     94 :    61.755640016927470
 Root     95 :    62.553116999650360   Change is   -0.089783519008549
 Root     96 :    62.732545998725040
 Iteration     3 Dimension   190 NMult   188 NNew      2
 Root      1 has converged.
 Root      2 has converged.
 Root      3 has converged.
 Root      4 has converged.
 Root      5 has converged.
 Root      6 has converged.
 Root      7 has converged.
 Root      8 has converged.
 Root      9 has converged.
 Root     10 has converged.
 Root     11 has converged.
 Root     12 has converged.
 Root     13 has converged.
 Root     14 has converged.
 Root     15 has converged.
 Root     16 has converged.
 Root     17 has converged.
 Root     18 has converged.
 Root     19 has converged.
 Root     20 has converged.
 Root     21 has converged.
 Root     22 has converged.
 New state     23 was old state     24
 Root     23 has converged.
 New state     24 was old state     25
 Root     24 has converged.
 Excitation Energies [eV] at current iteration:
 Root      1 :     6.608904953923992   Change is   -0.000000000000018
 Root      2 :     7.680309415998626   Change is   -0.000000000000092
 Root      3 :     8.040183152567158   Change is   -0.000000289229190
 Root      4 :     8.403640937835981   Change is   -0.000000000000039
 Root      5 :     9.177443670662178   Change is    0.000000000000017
 Root      6 :     9.193928569416766   Change is   -0.000000000000222
 Root      7 :    10.337090010424910   Change is   -0.000000112410764
 Root      8 :    11.113689371320980   Change is   -0.000000000000142
 Root      9 :    11.702084389755650   Change is   -0.000000000000060
 Root     10 :    12.044409833737190   Change is   -0.000000608205437
 Root     11 :    12.486663032625060   Change is   -0.000000000000029
 Root     12 :    16.104601710267570   Change is   -0.000000002893382
 Root     13 :    21.619502295472210   Change is    0.000000000000015
 Root     14 :    21.893289787683550   Change is   -0.000000000000003
 Root     15 :    22.009900883872080   Change is   -0.000000000000130
 Root     16 :    22.156903867527860   Change is    0.000000000000018
 Root     17 :    22.234057229328930   Change is   -0.000001671172202
 Root     18 :    22.915780396158290   Change is    0.000000000000015
 Root     19 :    24.640321615069570   Change is    0.000000000000009
 Root     20 :    25.137762699261620   Change is   -0.000000119942023
 Root     21 :    25.172746285328800   Change is   -0.000000279782392
 Root     22 :    25.265051426818380   Change is   -0.000000000000009
 Root     23 :    27.261498600972960   Change is   -0.000000126350611
 Root     24 :    28.090948126126820   Change is   -0.000000000000036
 Convergence achieved on expansion vectors.
 ***********************************************************************
 Excited states from <AA,BB:AA,BB> singles matrix:
 ***********************************************************************
 
 1PDM for each excited state written to RWF  633
 Ground to excited state transition densities written to RWF  633
 Ground to excited state transition electric dipole moments (Au):
       state          X           Y           Z        Dip. S.      Osc.
         1         0.0000      0.0000      0.0000      0.0000      0.0000
         2         0.0000      0.0000      0.2655      0.0705      0.0133
         3         0.0000      0.0000      0.0000      0.0000      0.0000
         4         0.0000      0.0000      0.0000      0.0000      0.0000
         5         0.0000      0.0000      0.0000      0.0000      0.0000
         6         0.0000      0.0000      0.0000      0.0000      0.0000
         7         0.0000      0.6419      0.0000      0.4121      0.1044
         8         0.0000      0.0000      0.0000      0.0000      0.0000
         9        -0.4158      0.0000      0.0000      0.1729      0.0496
        10         0.0000      0.0000      0.0000      0.0000      0.0000
        11         1.3138      0.0000      0.0000      1.7260      0.5280
        12         0.0000     -0.8486      0.0000      0.7201      0.2841
        13         0.0000      0.0000      0.0000      0.0000      0.0000
        14         0.0000      0.0000      0.0000      0.0000      0.0000
        15         0.0000      0.0000      0.0000      0.0000      0.0000
        16         0.0000      0.0000      0.0000      0.0000      0.0000
        17         0.0000      0.0000      0.0000      0.0000      0.0000
        18         0.0000      0.0000      0.3962      0.1569      0.0881
        19        -0.3955      0.0000      0.0000      0.1564      0.0944
        20         0.0000      0.0000      0.0000      0.0000      0.0000
        21         0.0000      0.0126      0.0000      0.0002      0.0001
        22         0.0000      0.0000      0.0000      0.0000      0.0000
        23         0.0000     -0.6051      0.0000      0.3662      0.2446
        24        -0.6797      0.0000      0.0000      0.4620      0.3180
 Ground to excited state transition velocity dipole moments (Au):
       state          X           Y           Z        Dip. S.      Osc.
         1         0.0000      0.0000      0.0000      0.0000      0.0000
         2         0.0000      0.0000     -0.2110      0.0445      0.1051
         3         0.0000      0.0000      0.0000      0.0000      0.0000
         4         0.0000      0.0000      0.0000      0.0000      0.0000
         5         0.0000      0.0000      0.0000      0.0000      0.0000
         6         0.0000      0.0000      0.0000      0.0000      0.0000
         7         0.0000     -0.2679      0.0000      0.0718      0.1259
         8         0.0000      0.0000      0.0000      0.0000      0.0000
         9         0.1109      0.0000      0.0000      0.0123      0.0191
        10         0.0000      0.0000      0.0000      0.0000      0.0000
        11        -0.5293      0.0000      0.0000      0.2801      0.4070
        12         0.0000      0.3923      0.0000      0.1539      0.1733
        13         0.0000      0.0000      0.0000      0.0000      0.0000
        14         0.0000      0.0000      0.0000      0.0000      0.0000
        15         0.0000      0.0000      0.0000      0.0000      0.0000
        16         0.0000      0.0000      0.0000      0.0000      0.0000
        17         0.0000      0.0000      0.0000      0.0000      0.0000
        18         0.0000      0.0000     -0.2438      0.0594      0.0470
        19         0.2216      0.0000      0.0000      0.0491      0.0361
        20         0.0000      0.0000      0.0000      0.0000      0.0000
        21         0.0000     -0.0800      0.0000      0.0064      0.0046
        22         0.0000      0.0000      0.0000      0.0000      0.0000
        23         0.0000      0.4122      0.0000      0.1699      0.1130
        24         0.4656      0.0000      0.0000      0.2168      0.1400
 Ground to excited state transition magnetic dipole moments (Au):
       state          X           Y           Z
         1         0.0000      0.0000      0.0000
         2        -0.3156      0.0000      0.0000
         3         0.0000      0.0000      0.0000
         4         0.0000      0.0000      0.0000
         5         0.0000     -0.4185      0.0000
         6         0.0000      0.0000      0.0000
         7         0.0000      0.0000      0.0000
         8         0.0000      0.0000      0.0000
         9         0.0000      0.0000      0.4576
        10         0.0000      0.0000      0.0000
        11         0.0000      0.0000      0.0870
        12         0.0000      0.0000      0.0000
        13         0.0000      0.0000      0.0000
        14         0.0000     -0.2118      0.0000
        15         0.0000      0.0000      0.0000
        16         0.0000      0.0000      0.0000
        17         0.0000      0.0000      0.0000
        18         0.1934      0.0000      0.0000
        19         0.0000      0.0000      0.4838
        20         0.0000      0.0000      0.0000
        21         0.0000      0.0000      0.0000
        22         0.0000      0.0000      0.0000
        23         0.0000      0.0000      0.0000
        24         0.0000      0.0000     -0.1378
 Ground to excited state transition velocity quadrupole moments (Au):
       state          XX          YY          ZZ          XY          XZ          YZ
         1         0.0000      0.0000      0.0000      0.0000      0.0000      0.0000
         2         0.0000      0.0000      0.0000      0.0000      0.0000     -0.1107
         3         0.0000      0.0000      0.0000      0.0000      0.0000      0.0000
         4         0.0000      0.0000      0.0000      0.0000      0.0000      0.0000
         5         0.0000      0.0000      0.0000      0.0000      0.2161      0.0000
         6         0.0000      0.0000      0.0000      0.0000      0.0000      0.0000
         7        -0.0814     -0.2375      0.0316      0.0000      0.0000      0.0000
         8         0.0000      0.0000      0.0000      0.0000      0.0000      0.0000
         9         0.0000      0.0000      0.0000      0.3497      0.0000      0.0000
        10         0.0000      0.0000      0.0000      0.0000      0.0000      0.0000
        11         0.0000      0.0000      0.0000     -0.5996      0.0000      0.0000
        12         1.2215      0.4105      0.0434      0.0000      0.0000      0.0000
        13         0.0000      0.0000      0.0000      0.0000      0.0000      0.0000
        14         0.0000      0.0000      0.0000      0.0000     -0.4393      0.0000
        15         0.0000      0.0000      0.0000      0.0000      0.0000      0.0000
        16         0.0000      0.0000      0.0000      0.0000      0.0000      0.0000
        17         0.0000      0.0000      0.0000      0.0000      0.0000      0.0000
        18         0.0000      0.0000      0.0000      0.0000      0.0000     -0.0690
        19         0.0000      0.0000      0.0000     -0.0768      0.0000      0.0000
        20         0.0000      0.0000      0.0000      0.0000      0.0000      0.0000
        21         0.4474     -0.4175     -0.3632      0.0000      0.0000      0.0000
        22         0.0000      0.0000      0.0000      0.0000      0.0000      0.0000
        23        -0.3962     -0.1335     -0.8198      0.0000      0.0000      0.0000
        24         0.0000      0.0000      0.0000      0.7866      0.0000      0.0000
 <0|del|b> * <b|rxdel|0> + <0|del|b> * <b|delr+rdel|0>
 Rotatory Strengths (R) in cgs (10**-40 erg-esu-cm/Gauss)
       state          XX          YY          ZZ    R(velocity)    E-M Angle
         1         0.0000      0.0000      0.0000      0.0000       90.00
         2         0.0000      0.0000      0.0000      0.0000       90.00
         3         0.0000      0.0000      0.0000      0.0000       90.00
         4         0.0000      0.0000      0.0000      0.0000       90.00
         5         0.0000      0.0000      0.0000      0.0000       90.00
         6         0.0000      0.0000      0.0000      0.0000       90.00
         7         0.0000      0.0000      0.0000      0.0000       90.00
         8         0.0000      0.0000      0.0000      0.0000       90.00
         9         0.0000      0.0000      0.0000      0.0000       90.00
        10         0.0000      0.0000      0.0000      0.0000       90.00
        11         0.0000      0.0000      0.0000      0.0000       90.00
        12         0.0000      0.0000      0.0000      0.0000       90.00
        13         0.0000      0.0000      0.0000      0.0000       90.00
        14         0.0000      0.0000      0.0000      0.0000       90.00
        15         0.0000      0.0000      0.0000      0.0000       90.00
        16         0.0000      0.0000      0.0000      0.0000       90.00
        17         0.0000      0.0000      0.0000      0.0000       90.00
        18         0.0000      0.0000      0.0000      0.0000       90.00
        19         0.0000      0.0000      0.0000      0.0000       90.00
        20         0.0000      0.0000      0.0000      0.0000       90.00
        21         0.0000      0.0000      0.0000      0.0000       90.00
        22         0.0000      0.0000      0.0000      0.0000       90.00
        23         0.0000      0.0000      0.0000      0.0000       90.00
        24         0.0000      0.0000      0.0000      0.0000       90.00
 1/2[<0|r|b>*<b|rxdel|0> + (<0|rxdel|b>*<b|r|0>)*]
 Rotatory Strengths (R) in cgs (10**-40 erg-esu-cm/Gauss)
       state          XX          YY          ZZ     R(length)
         1         0.0000      0.0000      0.0000      0.0000
         2         0.0000      0.0000      0.0000      0.0000
         3         0.0000      0.0000      0.0000      0.0000
         4         0.0000      0.0000      0.0000      0.0000
         5         0.0000      0.0000      0.0000      0.0000
         6         0.0000      0.0000      0.0000      0.0000
         7         0.0000      0.0000      0.0000      0.0000
         8         0.0000      0.0000      0.0000      0.0000
         9         0.0000      0.0000      0.0000      0.0000
        10         0.0000      0.0000      0.0000      0.0000
        11         0.0000      0.0000      0.0000      0.0000
        12         0.0000      0.0000      0.0000      0.0000
        13         0.0000      0.0000      0.0000      0.0000
        14         0.0000      0.0000      0.0000      0.0000
        15         0.0000      0.0000      0.0000      0.0000
        16         0.0000      0.0000      0.0000      0.0000
        17         0.0000      0.0000      0.0000      0.0000
        18         0.0000      0.0000      0.0000      0.0000
        19         0.0000      0.0000      0.0000      0.0000
        20         0.0000      0.0000      0.0000      0.0000
        21         0.0000      0.0000      0.0000      0.0000
        22         0.0000      0.0000      0.0000      0.0000
        23         0.0000      0.0000      0.0000      0.0000
        24         0.0000      0.0000      0.0000      0.0000
  1/2[<0|del|b>*<b|r|0> + (<0|r|b>*<b|del|0>)*] (Au)
       state          X           Y           Z        Dip. S.   Osc.(frdel)
         1         0.0000      0.0000      0.0000      0.0000      0.0000
         2         0.0000      0.0000     -0.0560      0.0560      0.0373
         3         0.0000      0.0000      0.0000      0.0000      0.0000
         4         0.0000      0.0000      0.0000      0.0000      0.0000
         5         0.0000      0.0000      0.0000      0.0000      0.0000
         6         0.0000      0.0000      0.0000      0.0000      0.0000
         7         0.0000     -0.1720      0.0000      0.1720      0.1146
         8         0.0000      0.0000      0.0000      0.0000      0.0000
         9        -0.0461      0.0000      0.0000      0.0461      0.0308
        10         0.0000      0.0000      0.0000      0.0000      0.0000
        11        -0.6954      0.0000      0.0000      0.6954      0.4636
        12         0.0000     -0.3329      0.0000      0.3329      0.2219
        13         0.0000      0.0000      0.0000      0.0000      0.0000
        14         0.0000      0.0000      0.0000      0.0000      0.0000
        15         0.0000      0.0000      0.0000      0.0000      0.0000
        16         0.0000      0.0000      0.0000      0.0000      0.0000
        17         0.0000      0.0000      0.0000      0.0000      0.0000
        18         0.0000      0.0000     -0.0966      0.0966      0.0644
        19        -0.0876      0.0000      0.0000      0.0876      0.0584
        20         0.0000      0.0000      0.0000      0.0000      0.0000
        21         0.0000     -0.0010      0.0000      0.0010      0.0007
        22         0.0000      0.0000      0.0000      0.0000      0.0000
        23         0.0000     -0.2494      0.0000      0.2494      0.1663
        24        -0.3165      0.0000      0.0000      0.3165      0.2110

 Excitation energies and oscillator strengths:
 
 Excited state symmetry could not be determined.
 Excited State   1:      Triplet-?Sym    6.6089 eV  187.60 nm  f=0.0000  <S**2>=2.000
       5 ->  6         0.68939
       5 ->  9        -0.13917
 This state for optimization and/or second-order correction.
 Total Energy, E(CIS) =  -75.7469229993    
 Copying the excited state density for this state as the 1-particle RhoCI density.
 
 Excited state symmetry could not be determined.
 Excited State   2:      Singlet-?Sym    7.6803 eV  161.43 nm  f=0.0133  <S**2>=0.000
       5 ->  6         0.69562
       5 ->  9        -0.11145
 
 Excited state symmetry could not be determined.
 Excited State   3:      Triplet-?Sym    8.0402 eV  154.21 nm  f=0.0000  <S**2>=2.000
       3 ->  7        -0.17659
       4 ->  6         0.65997
       4 ->  9        -0.14160
 
 Excited state symmetry could not be determined.
 Excited State   4:      Triplet-?Sym    8.4036 eV  147.54 nm  f=0.0000  <S**2>=2.000
       5 ->  7         0.67758
       5 ->  8         0.17770
 
 Excited state symmetry could not be determined.
 Excited State   5:      Singlet-?Sym    9.1774 eV  135.10 nm  f=0.0000  <S**2>=0.000
       5 ->  7         0.68384
       5 ->  8         0.15936
 
 Excited state symmetry could not be determined.
 Excited State   6:      Triplet-?Sym    9.1939 eV  134.85 nm  f=0.0000  <S**2>=2.000
       3 ->  6        -0.44567
       3 ->  9         0.12332
       4 ->  7         0.50484
       4 ->  8         0.15685
 
 Excited state symmetry could not be determined.
 Excited State   7:      Singlet-?Sym   10.3371 eV  119.94 nm  f=0.1044  <S**2>=0.000
       3 ->  7         0.13623
       4 ->  6         0.68498
 
 Excited state symmetry could not be determined.
 Excited State   8:      Triplet-?Sym   11.1137 eV  111.56 nm  f=0.0000  <S**2>=2.000
       3 ->  6         0.51929
       4 ->  7         0.44982
       4 ->  8         0.10609
 
 Excited state symmetry could not be determined.
 Excited State   9:      Singlet-?Sym   11.7021 eV  105.95 nm  f=0.0496  <S**2>=0.000
       3 ->  6         0.22327
       4 ->  7         0.65560
       4 ->  8         0.10792
 
 Excited state symmetry could not be determined.
 Excited State  10:      Triplet-?Sym   12.0444 eV  102.94 nm  f=0.0000  <S**2>=2.000
       3 ->  7         0.64339
       3 ->  8         0.18247
       4 ->  6         0.20213
 
 Excited state symmetry could not be determined.
 Excited State  11:      Singlet-?Sym   12.4867 eV   99.29 nm  f=0.5280  <S**2>=0.000
       3 ->  6         0.66419
       4 ->  7        -0.22824
 
 Excited state symmetry could not be determined.
 Excited State  12:      Singlet-?Sym   16.1046 eV   76.99 nm  f=0.2841  <S**2>=0.000
       3 ->  7         0.67505
       4 ->  6        -0.13774
       5 -> 11         0.11153
 
 Excited state symmetry could not be determined.
 Excited State  13:      Triplet-?Sym   21.6195 eV   57.35 nm  f=0.0000  <S**2>=2.000
       5 ->  7        -0.18135
       5 ->  8         0.68157
 
 Excited state symmetry could not be determined.
 Excited State  14:      Singlet-?Sym   21.8933 eV   56.63 nm  f=0.0000  <S**2>=0.000
       5 ->  7        -0.16200
       5 ->  8         0.68680
 
 Excited state symmetry could not be determined.
 Excited State  15:      Triplet-?Sym   22.0099 eV   56.33 nm  f=0.0000  <S**2>=2.000
       3 ->  9         0.29260
       4 ->  7        -0.18275
       4 ->  8         0.60569
 
 Excited state symmetry could not be determined.
 Excited State  16:      Triplet-?Sym   22.1569 eV   55.96 nm  f=0.0000  <S**2>=2.000
       5 ->  6         0.14564
       5 ->  9         0.68386
 
 Excited state symmetry could not be determined.
 Excited State  17:      Triplet-?Sym   22.2341 eV   55.76 nm  f=0.0000  <S**2>=2.000
       3 ->  7        -0.17417
       3 ->  8         0.39765
       4 ->  6         0.12487
       4 ->  9         0.52016
 
 Excited state symmetry could not be determined.
 Excited State  18:      Singlet-?Sym   22.9158 eV   54.10 nm  f=0.0881  <S**2>=0.000
       5 ->  6         0.11807
       5 ->  9         0.68877
 
 Excited state symmetry could not be determined.
 Excited State  19:      Singlet-?Sym   24.6403 eV   50.32 nm  f=0.0944  <S**2>=0.000
       3 ->  9        -0.15438
       4 ->  7        -0.11144
       4 ->  8         0.67581
 
 Excited state symmetry could not be determined.
 Excited State  20:      Triplet-?Sym   25.1378 eV   49.32 nm  f=0.0000  <S**2>=2.000
       3 ->  7        -0.11248
       3 ->  8         0.54176
       4 ->  9        -0.39916
 
 Excited state symmetry could not be determined.
 Excited State  21:      Singlet-?Sym   25.1727 eV   49.25 nm  f=0.0001  <S**2>=0.000
       4 ->  9         0.68152
       5 -> 11         0.10504
 
 Excited state symmetry could not be determined.
 Excited State  22:      Triplet-?Sym   25.2651 eV   49.07 nm  f=0.0000  <S**2>=2.000
       2 ->  7         0.11165
       3 ->  6         0.14005
       3 ->  9         0.60149
       4 ->  8        -0.30131
 
 Excited state symmetry could not be determined.
 Excited State  23:      Singlet-?Sym   27.2615 eV   45.48 nm  f=0.2446  <S**2>=0.000
       3 ->  8         0.67820
       5 -> 11         0.14002
 
 Excited state symmetry could not be determined.
 Excited State  24:      Singlet-?Sym   28.0909 eV   44.14 nm  f=0.3180  <S**2>=0.000
       3 ->  9         0.67097
       4 ->  8         0.14912
 SavETr:  write IOETrn=   770 NScale= 10 NData=  16 NLR=1 NState=   24 LETran=     442.
 Leave Link  914 at Tue Sep 22 14:54:31 2015, MaxMem=    33554432 cpu:               0.2 elap:               0.2
 (Enter /home/gauss/gdvi01p/gdv/l601.exe)
 Copying SCF densities to generalized density rwf, IOpCl= 0 IROHF=0.

 **********************************************************************

            Population analysis using the SCF density.

 **********************************************************************

 Alpha  occ. eigenvalues --  -20.57475  -1.27757  -0.62991  -0.54168  -0.48654
 Alpha virt. eigenvalues --    0.15762   0.22951   0.70468   0.74456   1.17081
 Alpha virt. eigenvalues --    1.18642   1.26803   1.45091   1.47393   1.65847
 Alpha virt. eigenvalues --    1.80424   1.89143   2.14912   2.20024   3.17260
 Alpha virt. eigenvalues --    3.20969   3.32810   3.72135   3.98547
     Molecular Orbital Coefficients:
                           1         2         3         4         5
                           O         O         O         O         O
     Eigenvalues --   -20.57475  -1.27757  -0.62991  -0.54168  -0.48654
   1 1   O  1S          0.99719  -0.21190   0.00000   0.06442   0.00000
   2        2S          0.01472   0.45637   0.00000  -0.13920   0.00000
   3        3S         -0.00338   0.46057   0.00000  -0.29945   0.00000
   4        4PX         0.00000   0.00000   0.47439   0.00000   0.00000
   5        4PY         0.00145   0.05418   0.00000   0.53025   0.00000
   6        4PZ         0.00000   0.00000   0.00000   0.00000   0.63733
   7        5PX         0.00000   0.00000   0.26190   0.00000   0.00000
   8        5PY        -0.00087   0.00476   0.00000   0.37778   0.00000
   9        5PZ         0.00000   0.00000   0.00000   0.00000   0.49910
  10        6D 0        0.00015  -0.00295   0.00000  -0.01253   0.00000
  11        6D+1        0.00000   0.00000   0.00000   0.00000   0.00000
  12        6D-1        0.00000   0.00000   0.00000   0.00000   0.01613
  13        6D+2       -0.00003   0.00034   0.00000  -0.01141   0.00000
  14        6D-2        0.00000   0.00000   0.02337   0.00000   0.00000
  15 2   H  1S          0.00032   0.14067   0.29959   0.20745   0.00000
  16        2S          0.00046   0.01396   0.11874   0.07216   0.00000
  17        3PX         0.00015  -0.02675  -0.02293  -0.02862   0.00000
  18        3PY         0.00021  -0.01617  -0.02932   0.00349   0.00000
  19        3PZ         0.00000   0.00000   0.00000   0.00000   0.02534
  20 3   H  1S          0.00032   0.14067  -0.29959   0.20745   0.00000
  21        2S          0.00046   0.01396  -0.11874   0.07216   0.00000
  22        3PX        -0.00015   0.02675  -0.02293   0.02862   0.00000
  23        3PY         0.00021  -0.01617   0.02932   0.00349   0.00000
  24        3PZ         0.00000   0.00000   0.00000   0.00000   0.02534
                           6         7         8         9        10
                           V         V         V         V         V
     Eigenvalues --     0.15762   0.22951   0.70468   0.74456   1.17081
   1 1   O  1S         -0.08236   0.00000   0.00000   0.03419  -0.04448
   2        2S          0.07946   0.00000   0.00000  -0.25436   0.13998
   3        3S          0.84455   0.00000   0.00000   0.35037   0.37661
   4        4PX         0.00000  -0.32850  -0.28196   0.00000   0.00000
   5        4PY         0.24545   0.00000   0.00000  -0.31712  -0.77533
   6        4PZ         0.00000   0.00000   0.00000   0.00000   0.00000
   7        5PX         0.00000  -0.65506  -0.23849   0.00000   0.00000
   8        5PY         0.38664   0.00000   0.00000  -0.04017   1.07444
   9        5PZ         0.00000   0.00000   0.00000   0.00000   0.00000
  10        6D 0       -0.00577   0.00000   0.00000  -0.06920   0.00468
  11        6D+1        0.00000   0.00000   0.00000   0.00000   0.00000
  12        6D-1        0.00000   0.00000   0.00000   0.00000   0.00000
  13        6D+2       -0.00515   0.00000   0.00000   0.04218  -0.03829
  14        6D-2        0.00000  -0.00981   0.09163   0.00000   0.00000
  15 2   H  1S         -0.09469   0.07105   0.93176   0.87230  -0.33520
  16        2S         -0.75636   1.18305  -0.87021  -0.64411  -0.09403
  17        3PX         0.00338  -0.00975   0.03828   0.19102   0.01668
  18        3PY         0.00918  -0.00284   0.11005   0.03849   0.31589
  19        3PZ         0.00000   0.00000   0.00000   0.00000   0.00000
  20 3   H  1S         -0.09469  -0.07105  -0.93176   0.87230  -0.33520
  21        2S         -0.75636  -1.18305   0.87021  -0.64411  -0.09403
  22        3PX        -0.00338  -0.00975   0.03828  -0.19102  -0.01668
  23        3PY         0.00918   0.00284  -0.11005   0.03849   0.31589
  24        3PZ         0.00000   0.00000   0.00000   0.00000   0.00000
                          11        12        13        14        15
                           V         V         V         V         V
     Eigenvalues --     1.18642   1.26803   1.45091   1.47393   1.65847
   1 1   O  1S          0.00000   0.00000   0.00000  -0.03898   0.00000
   2        2S          0.00000   0.00000   0.00000   0.59799   0.00000
   3        3S          0.00000   0.00000   0.00000  -0.52559   0.00000
   4        4PX         0.00000  -0.79254   0.00000   0.00000   0.00000
   5        4PY         0.00000   0.00000   0.00000  -0.27073   0.00000
   6        4PZ         0.94334   0.00000   0.00000   0.00000   0.20724
   7        5PX         0.00000   1.57610   0.00000   0.00000   0.00000
   8        5PY         0.00000   0.00000   0.00000   0.75643   0.00000
   9        5PZ        -0.92857   0.00000   0.00000   0.00000  -0.69221
  10        6D 0        0.00000   0.00000   0.00000   0.03723   0.00000
  11        6D+1        0.00000   0.00000   0.14393   0.00000   0.00000
  12        6D-1       -0.00918   0.00000   0.00000   0.00000   0.16262
  13        6D+2        0.00000   0.00000   0.00000   0.14236   0.00000
  14        6D-2        0.00000  -0.00466   0.00000   0.00000   0.00000
  15 2   H  1S          0.00000  -0.28172   0.00000  -0.29329   0.00000
  16        2S          0.00000  -0.62670   0.00000   0.17298   0.00000
  17        3PX         0.00000   0.32873   0.00000   0.38890   0.00000
  18        3PY         0.00000   0.09703   0.00000  -0.46543   0.00000
  19        3PZ        -0.12804   0.00000   0.68101   0.00000   0.73401
  20 3   H  1S          0.00000   0.28172   0.00000  -0.29329   0.00000
  21        2S          0.00000   0.62670   0.00000   0.17298   0.00000
  22        3PX         0.00000   0.32873   0.00000  -0.38890   0.00000
  23        3PY         0.00000  -0.09703   0.00000  -0.46543   0.00000
  24        3PZ        -0.12804   0.00000  -0.68101   0.00000   0.73401
                          16        17        18        19        20
                           V         V         V         V         V
     Eigenvalues --     1.80424   1.89143   2.14912   2.20024   3.17260
   1 1   O  1S          0.00000   0.01924   0.00000  -0.07616   0.00000
   2        2S          0.00000  -1.68308   0.00000  -0.03732   0.00000
   3        3S          0.00000   2.42900   0.00000   1.35113   0.00000
   4        4PX        -0.15860   0.00000   0.65364   0.00000   0.00000
   5        4PY         0.00000  -0.21470   0.00000   0.50087   0.00000
   6        4PZ         0.00000   0.00000   0.00000   0.00000  -0.05242
   7        5PX         0.89915   0.00000   0.16230   0.00000   0.00000
   8        5PY         0.00000   0.89606   0.00000   0.39744   0.00000
   9        5PZ         0.00000   0.00000   0.00000   0.00000   0.21737
  10        6D 0        0.00000   0.14544   0.00000   0.21277   0.00000
  11        6D+1        0.00000   0.00000   0.00000   0.00000   0.00000
  12        6D-1        0.00000   0.00000   0.00000   0.00000   1.01197
  13        6D+2        0.00000   0.05329   0.00000  -0.03799   0.00000
  14        6D-2       -0.02768   0.00000  -0.11466   0.00000   0.00000
  15 2   H  1S         -0.33997  -0.56523  -0.09750  -0.42381   0.00000
  16        2S         -0.09864  -0.29381  -0.34461  -0.25773   0.00000
  17        3PX        -0.37893   0.22788   0.64689   0.76421   0.00000
  18        3PY         0.68074  -0.11945   0.50032   0.49561   0.00000
  19        3PZ         0.00000   0.00000   0.00000   0.00000  -0.29850
  20 3   H  1S          0.33997  -0.56523   0.09750  -0.42381   0.00000
  21        2S          0.09864  -0.29381   0.34461  -0.25773   0.00000
  22        3PX        -0.37893  -0.22788   0.64689  -0.76421   0.00000
  23        3PY        -0.68074  -0.11945  -0.50032   0.49561   0.00000
  24        3PZ         0.00000   0.00000   0.00000   0.00000  -0.29850
                          21        22        23        24
                           V         V         V         V
     Eigenvalues --     3.20969   3.32810   3.72135   3.98547
   1 1   O  1S          0.00000   0.00779  -0.06512   0.00000
   2        2S          0.00000   0.12264  -0.50872   0.00000
   3        3S          0.00000  -0.29197   1.83391   0.00000
   4        4PX         0.00000   0.00000   0.00000   0.19792
   5        4PY         0.00000   0.05415   0.17767   0.00000
   6        4PZ         0.00000   0.00000   0.00000   0.00000
   7        5PX         0.00000   0.00000   0.00000   0.95580
   8        5PY         0.00000  -0.35287   0.81118   0.00000
   9        5PZ         0.00000   0.00000   0.00000   0.00000
  10        6D 0        0.00000   0.30992  -1.04941   0.00000
  11        6D+1        1.02464   0.00000   0.00000   0.00000
  12        6D-1        0.00000   0.00000   0.00000   0.00000
  13        6D+2        0.00000   0.98887   0.36639   0.00000
  14        6D-2        0.00000   0.00000   0.00000   1.24232
  15 2   H  1S          0.00000   0.15584  -0.82785  -0.69381
  16        2S          0.00000   0.01717  -0.18407  -0.25216
  17        3PX         0.00000  -0.26891   0.57032   0.50442
  18        3PY         0.00000   0.25957   0.40181   0.44206
  19        3PZ        -0.28734   0.00000   0.00000   0.00000
  20 3   H  1S          0.00000   0.15584  -0.82785   0.69381
  21        2S          0.00000   0.01717  -0.18407   0.25216
  22        3PX         0.00000   0.26891  -0.57032   0.50442
  23        3PY         0.00000   0.25957   0.40181  -0.44206
  24        3PZ         0.28734   0.00000   0.00000   0.00000
     Density Matrix:
                           1         2         3         4         5
   1 1   O  1S          2.08687
   2        2S         -0.18198   0.45573
   3        3S         -0.24051   0.50365   0.60361
   4        4PX         0.00000   0.00000   0.00000   0.45010
   5        4PY         0.04824  -0.09813  -0.26768   0.00000   0.56820
   6        4PZ         0.00000   0.00000   0.00000   0.00000   0.00000
   7        5PX         0.00000   0.00000   0.00000   0.24849   0.00000
   8        5PY         0.04491  -0.10086  -0.22187   0.00000   0.40115
   9        5PZ         0.00000   0.00000   0.00000   0.00000   0.00000
  10        6D 0       -0.00007   0.00080   0.00479   0.00000  -0.01361
  11        6D+1        0.00000   0.00000   0.00000   0.00000   0.00000
  12        6D-1        0.00000   0.00000   0.00000   0.00000   0.00000
  13        6D+2       -0.00166   0.00348   0.00714   0.00000  -0.01206
  14        6D-2        0.00000   0.00000   0.00000   0.02218   0.00000
  15 2   H  1S         -0.03224   0.07065   0.00533   0.28425   0.23524
  16        2S          0.00430  -0.00733  -0.03036   0.11266   0.07804
  17        3PX         0.00795  -0.01644  -0.00750  -0.02176  -0.03325
  18        3PY         0.00771  -0.01572  -0.01698  -0.02782   0.00194
  19        3PZ         0.00000   0.00000   0.00000   0.00000   0.00000
  20 3   H  1S         -0.03224   0.07065   0.00533  -0.28425   0.23524
  21        2S          0.00430  -0.00733  -0.03036  -0.11266   0.07804
  22        3PX        -0.00795   0.01644   0.00750  -0.02176   0.03325
  23        3PY         0.00771  -0.01572  -0.01698   0.02782   0.00194
  24        3PZ         0.00000   0.00000   0.00000   0.00000   0.00000
                           6         7         8         9        10
   6        4PZ         0.81239
   7        5PX         0.00000   0.13718
   8        5PY         0.00000   0.00000   0.28548
   9        5PZ         0.63619   0.00000   0.00000   0.49821
  10        6D 0        0.00000   0.00000  -0.00950   0.00000   0.00033
  11        6D+1        0.00000   0.00000   0.00000   0.00000   0.00000
  12        6D-1        0.02056   0.00000   0.00000   0.01610   0.00000
  13        6D+2        0.00000   0.00000  -0.00861   0.00000   0.00028
  14        6D-2        0.00000   0.01224   0.00000   0.00000   0.00000
  15 2   H  1S          0.00000   0.15693   0.15808   0.00000  -0.00603
  16        2S          0.00000   0.06220   0.05465   0.00000  -0.00189
  17        3PX         0.00000  -0.01201  -0.02188   0.00000   0.00087
  18        3PY         0.00000  -0.01536   0.00248   0.00000   0.00001
  19        3PZ         0.03230   0.00000   0.00000   0.02530   0.00000
  20 3   H  1S          0.00000  -0.15693   0.15808   0.00000  -0.00603
  21        2S          0.00000  -0.06220   0.05465   0.00000  -0.00189
  22        3PX         0.00000  -0.01201   0.02188   0.00000  -0.00087
  23        3PY         0.00000   0.01536   0.00248   0.00000   0.00001
  24        3PZ         0.03230   0.00000   0.00000   0.02530   0.00000
                          11        12        13        14        15
  11        6D+1        0.00000
  12        6D-1        0.00000   0.00052
  13        6D+2        0.00000   0.00000   0.00026
  14        6D-2        0.00000   0.00000   0.00000   0.00109
  15 2   H  1S          0.00000   0.00000  -0.00464   0.01400   0.30516
  16        2S          0.00000   0.00000  -0.00164   0.00555   0.10501
  17        3PX         0.00000   0.00000   0.00063  -0.00107  -0.03314
  18        3PY         0.00000   0.00000  -0.00009  -0.00137  -0.02067
  19        3PZ         0.00000   0.00082   0.00000   0.00000   0.00000
  20 3   H  1S          0.00000   0.00000  -0.00464  -0.01400  -0.05386
  21        2S          0.00000   0.00000  -0.00164  -0.00555  -0.03728
  22        3PX         0.00000   0.00000  -0.00063  -0.00107   0.00566
  23        3PY         0.00000   0.00000  -0.00009   0.00137   0.01447
  24        3PZ         0.00000   0.00082   0.00000   0.00000   0.00000
                          16        17        18        19        20
  16        2S          0.03900
  17        3PX        -0.01032   0.00412
  18        3PY        -0.00691   0.00201   0.00227
  19        3PZ         0.00000   0.00000   0.00000   0.00128
  20 3   H  1S         -0.03728  -0.00566   0.01447   0.00000   0.30516
  21        2S         -0.01739   0.00057   0.00701   0.00000   0.10501
  22        3PX        -0.00057  -0.00202   0.00068   0.00000   0.03314
  23        3PY         0.00701  -0.00068  -0.00117   0.00000  -0.02067
  24        3PZ         0.00000   0.00000   0.00000   0.00128   0.00000
                          21        22        23        24
  21        2S          0.03900
  22        3PX         0.01032   0.00412
  23        3PY        -0.00691  -0.00201   0.00227
  24        3PZ         0.00000   0.00000   0.00000   0.00128
    Full Mulliken population analysis:
                           1         2         3         4         5
   1 1   O  1S          2.08687
   2        2S         -0.04098   0.45573
   3        3S         -0.04421   0.39900   0.60361
   4        4PX         0.00000   0.00000   0.00000   0.45010
   5        4PY         0.00000   0.00000   0.00000   0.00000   0.56820
   6        4PZ         0.00000   0.00000   0.00000   0.00000   0.00000
   7        5PX         0.00000   0.00000   0.00000   0.12456   0.00000
   8        5PY         0.00000   0.00000   0.00000   0.00000   0.20108
   9        5PZ         0.00000   0.00000   0.00000   0.00000   0.00000
  10        6D 0        0.00000   0.00000   0.00000   0.00000   0.00000
  11        6D+1        0.00000   0.00000   0.00000   0.00000   0.00000
  12        6D-1        0.00000   0.00000   0.00000   0.00000   0.00000
  13        6D+2        0.00000   0.00000   0.00000   0.00000   0.00000
  14        6D-2        0.00000   0.00000   0.00000   0.00000   0.00000
  15 2   H  1S         -0.00102   0.01494   0.00217   0.04900   0.03168
  16        2S          0.00025  -0.00232  -0.01796   0.00965   0.00522
  17        3PX        -0.00038   0.00438   0.00213   0.00371   0.00762
  18        3PY        -0.00028   0.00327   0.00376   0.00637  -0.00011
  19        3PZ         0.00000   0.00000   0.00000   0.00000   0.00000
  20 3   H  1S         -0.00102   0.01494   0.00217   0.04900   0.03168
  21        2S          0.00025  -0.00232  -0.01796   0.00965   0.00522
  22        3PX        -0.00038   0.00438   0.00213   0.00371   0.00762
  23        3PY        -0.00028   0.00327   0.00376   0.00637  -0.00011
  24        3PZ         0.00000   0.00000   0.00000   0.00000   0.00000
                           6         7         8         9        10
   6        4PZ         0.81239
   7        5PX         0.00000   0.13718
   8        5PY         0.00000   0.00000   0.28548
   9        5PZ         0.31890   0.00000   0.00000   0.49821
  10        6D 0        0.00000   0.00000   0.00000   0.00000   0.00033
  11        6D+1        0.00000   0.00000   0.00000   0.00000   0.00000
  12        6D-1        0.00000   0.00000   0.00000   0.00000   0.00000
  13        6D+2        0.00000   0.00000   0.00000   0.00000   0.00000
  14        6D-2        0.00000   0.00000   0.00000   0.00000   0.00000
  15 2   H  1S          0.00000   0.07314   0.05757   0.00000   0.00058
  16        2S          0.00000   0.02019   0.01386   0.00000   0.00003
  17        3PX         0.00000   0.00027   0.00582   0.00000   0.00009
  18        3PY         0.00000   0.00409   0.00027   0.00000   0.00000
  19        3PZ         0.00396   0.00000   0.00000   0.00804   0.00000
  20 3   H  1S          0.00000   0.07314   0.05757   0.00000   0.00058
  21        2S          0.00000   0.02019   0.01386   0.00000   0.00003
  22        3PX         0.00000   0.00027   0.00582   0.00000   0.00009
  23        3PY         0.00000   0.00409   0.00027   0.00000   0.00000
  24        3PZ         0.00396   0.00000   0.00000   0.00804   0.00000
                          11        12        13        14        15
  11        6D+1        0.00000
  12        6D-1        0.00000   0.00052
  13        6D+2        0.00000   0.00000   0.00026
  14        6D-2        0.00000   0.00000   0.00000   0.00109
  15 2   H  1S          0.00000   0.00000  -0.00019   0.00227   0.30516
  16        2S          0.00000   0.00000  -0.00001   0.00013   0.07192
  17        3PX         0.00000   0.00000   0.00006   0.00021   0.00000
  18        3PY         0.00000   0.00000   0.00002   0.00012   0.00000
  19        3PZ         0.00000   0.00011   0.00000   0.00000   0.00000
  20 3   H  1S          0.00000   0.00000  -0.00019   0.00227  -0.00358
  21        2S          0.00000   0.00000  -0.00001   0.00013  -0.00894
  22        3PX         0.00000   0.00000   0.00006   0.00021   0.00050
  23        3PY         0.00000   0.00000   0.00002   0.00012   0.00000
  24        3PZ         0.00000   0.00011   0.00000   0.00000   0.00000
                          16        17        18        19        20
  16        2S          0.03900
  17        3PX         0.00000   0.00412
  18        3PY         0.00000   0.00000   0.00227
  19        3PZ         0.00000   0.00000   0.00000   0.00128
  20 3   H  1S         -0.00894   0.00050   0.00000   0.00000   0.30516
  21        2S         -0.00904  -0.00009   0.00000   0.00000   0.07192
  22        3PX        -0.00009   0.00028   0.00000   0.00000   0.00000
  23        3PY         0.00000   0.00000  -0.00002   0.00000   0.00000
  24        3PZ         0.00000   0.00000   0.00000   0.00003   0.00000
                          21        22        23        24
  21        2S          0.03900
  22        3PX         0.00000   0.00412
  23        3PY         0.00000   0.00000   0.00227
  24        3PZ         0.00000   0.00000   0.00000   0.00128
     Gross orbital populations:
                           1
   1 1   O  1S          1.99881
   2        2S          0.85428
   3        3S          0.93860
   4        4PX         0.71212
   5        4PY         0.85811
   6        4PZ         1.13921
   7        5PX         0.45713
   8        5PY         0.64160
   9        5PZ         0.83319
  10        6D 0        0.00172
  11        6D+1        0.00000
  12        6D-1        0.00075
  13        6D+2        0.00003
  14        6D-2        0.00655
  15 2   H  1S          0.59518
  16        2S          0.12188
  17        3PX         0.02872
  18        3PY         0.01975
  19        3PZ         0.01342
  20 3   H  1S          0.59518
  21        2S          0.12188
  22        3PX         0.02872
  23        3PY         0.01975
  24        3PZ         0.01342
          Condensed to atoms (all electrons):
               1          2          3
     1  O    7.816688   0.312693   0.312693
     2  H    0.312693   0.495666  -0.029396
     3  H    0.312693  -0.029396   0.495666
 Mulliken charges:
               1
     1  O   -0.442075
     2  H    0.221037
     3  H    0.221037
 Sum of Mulliken charges =   0.00000
 Mulliken charges with hydrogens summed into heavy atoms:
               1
     1  O    0.000000
 Electronic spatial extent (au):  <R**2>=             20.6280
 Charge=              0.0000 electrons
 Dipole moment (field-independent basis, Debye):
    X=              0.0000    Y=              2.1766    Z=              0.0000  Tot=              2.1766
 Quadrupole moment (field-independent basis, Debye-Ang):
   XX=             -3.8395   YY=             -5.6417   ZZ=             -7.3506
   XY=              0.0000   XZ=              0.0000   YZ=              0.0000
 Traceless Quadrupole moment (field-independent basis, Debye-Ang):
   XX=              1.7711   YY=             -0.0311   ZZ=             -1.7400
   XY=              0.0000   XZ=              0.0000   YZ=              0.0000
 Octapole moment (field-independent basis, Debye-Ang**2):
  XXX=              0.0000  YYY=              0.0793  ZZZ=              0.0000  XYY=              0.0000
  XXY=              1.5423  XXZ=              0.0000  XZZ=              0.0000  YZZ=             -0.2439
  YYZ=              0.0000  XYZ=              0.0000
 Hexadecapole moment (field-independent basis, Debye-Ang**3):
 XXXX=             -6.6468 YYYY=             -6.7062 ZZZZ=             -5.2618 XXXY=              0.0000
 XXXZ=              0.0000 YYYX=              0.0000 YYYZ=              0.0000 ZZZX=              0.0000
 ZZZY=              0.0000 XXYY=             -1.4310 XXZZ=             -2.4717 YYZZ=             -2.1155
 XXYZ=              0.0000 YYXZ=              0.0000 ZZXY=              0.0000
 N-N= 8.002366485626D+00 E-N=-1.965235356121D+02  KE= 7.556012802181D+01
 Orbital energies and kinetic energies (alpha):
                                 1                 2
   1         O               -20.574752         29.209013
   2         O                -1.277566          2.651580
   3         O                -0.629911          1.593141
   4         O                -0.541684          2.024989
   5         O                -0.486545          2.301341
   6         V                 0.157621          0.919827
   7         V                 0.229513          0.936643
   8         V                 0.704679          1.793319
   9         V                 0.744562          2.016383
  10         V                 1.170810          3.049580
  11         V                 1.186420          3.594317
  12         V                 1.268027          2.984997
  13         V                 1.450914          1.889498
  14         V                 1.473927          2.372323
  15         V                 1.658468          2.109298
  16         V                 1.804244          2.203175
  17         V                 1.891430          3.906643
  18         V                 2.149116          3.568484
  19         V                 2.200244          3.481478
  20         V                 3.172600          4.311628
  21         V                 3.209688          4.361670
  22         V                 3.328097          4.488846
  23         V                 3.721354          5.007186
  24         V                 3.985472          5.347676
 Total kinetic energy from orbitals= 7.556012802181D+01
 Leave Link  601 at Tue Sep 22 14:54:31 2015, MaxMem=    33554432 cpu:               0.0 elap:               0.0
 (Enter /home/gauss/gdvi01p/gdv/l9999.exe)
 Unable to Open any file for archive entry.
 1\1\GINC-MEDUSA\SP\RCIS-Full\CC-pVDZ\H2O1\DBWY\22-Sep-2015\0\\#p hf/cc
 -pVDZ gfinput pop=full nosymm cis(full,nstates=12,50-50)\\Water cc-pVD
 Z\\0,1\O,0,0.,-0.0757918436,0.\H,0,0.866811829,0.6014357793,0.\H,0,-0.
 866811829,0.6014357793,0.\\Version=ES64L-GDVRevI.01+\HF=-75.9897958\MP
 2=-76.2041434\RMSD=5.213e-09\PG=C02V [C2(O1),SGV(H2)]\\@
 The archive entry for this job was punched.


 OF ALL THE WONDERS OF THE UNIVERSE, THE GREATEST IS MAN.

                                    -- ARISTOTLE
 Job cpu time:       0 days  0 hours  0 minutes  1.1 seconds.
 Elapsed time:       0 days  0 hours  0 minutes  0.9 seconds.
 File lengths (MBytes):  RWF=     13 Int=      0 D2E=      0 Chk=      2 Scr=      1
 Normal termination of Gaussian DV at Tue Sep 22 14:54:31 2015.
