 Entering Gaussian System, Link 0=gdv
 Input=h2o_631G_CIS.com
 Output=h2o_631G_CIS.log
 Initial command:
 /home/gauss/gdvi03p/gdv/l1.exe "/home/GauScr/Gau-16819.inp" -scrdir="/home/GauScr/"
 Entering Link 1 = /home/gauss/gdvi03p/gdv/l1.exe PID=     16820.
  
 Copyright (c) 1988,1990,1992,1993,1995,1998,2003,2009,2015,
            Gaussian, Inc.  All Rights Reserved.
  
 This is the private, development version of
 the Gaussian(R) DV system of programs. It is based on
 the Gaussian(R) 09 system (copyright 2009, Gaussian, Inc.),
 the Gaussian(R) 03 system (copyright 2003, Gaussian, Inc.),
 the Gaussian(R) 98 system (copyright 1998, Gaussian, Inc.),
 the Gaussian(R) 94 system (copyright 1995, Gaussian, Inc.),
 the Gaussian 92(TM) system (copyright 1992, Gaussian, Inc.),
 the Gaussian 90(TM) system (copyright 1990, Gaussian, Inc.),
 the Gaussian 88(TM) system (copyright 1988, Gaussian, Inc.),
 the Gaussian 86(TM) system (copyright 1986, Carnegie Mellon
 University), and the Gaussian 82(TM) system (copyright 1983,
 Carnegie Mellon University). Gaussian is a federally registered
 trademark of Gaussian, Inc.
  
 This software contains proprietary and confidential information,
 including trade secrets, belonging to Gaussian, Inc.
  
 This software is provided under written license and may be
 used, copied, transmitted, or stored only in accord with that
 written license.
  
 The following legend is applicable only to US Government
 contracts under FAR:
  
                    RESTRICTED RIGHTS LEGEND
  
 Use, reproduction and disclosure by the US Government is
 subject to restrictions as set forth in subparagraphs (a)
 and (c) of the Commercial Computer Software - Restricted
 Rights clause in FAR 52.227-19.
  
 Gaussian, Inc.
 340 Quinnipiac St., Bldg. 40, Wallingford CT 06492
  
  
 ---------------------------------------------------------------
 Warning -- This program may not be used in any manner that
 competes with the business of Gaussian, Inc. or will provide
 assistance to any competitor of Gaussian, Inc.  The licensee
 of this program is prohibited from giving any competitor of
 Gaussian, Inc. access to this program.  By using this program,
 the user acknowledges that Gaussian, Inc. is engaged in the
 business of creating and licensing software in the field of
 computational chemistry and represents and warrants to the
 licensee that it is not a competitor of Gaussian, Inc. and that
 it will not use this program in any manner prohibited above.
 ---------------------------------------------------------------
  

 Cite this work as:
 Gaussian Development Version, Revision I.03+,
 M. J. Frisch, G. W. Trucks, H. B. Schlegel, G. E. Scuseria, 
 M. A. Robb, J. R. Cheeseman, G. Scalmani, V. Barone, B. Mennucci, 
 G. A. Petersson, H. Nakatsuji, M. Caricato, X. Li, H. P. Hratchian, 
 J. Bloino, B. G. Janesko, A. F. Izmaylov, A. Marenich, F. Lipparini, 
 G. Zheng, J. L. Sonnenberg, W. Liang, M. Hada, M. Ehara, K. Toyota, 
 R. Fukuda, J. Hasegawa, M. Ishida, T. Nakajima, Y. Honda, O. Kitao, 
 H. Nakai, T. Vreven, K. Throssell, J. A. Montgomery, Jr., 
 J. E. Peralta, F. Ogliaro, M. Bearpark, J. J. Heyd, E. Brothers, 
 K. N. Kudin, V. N. Staroverov, T. Keith, R. Kobayashi, J. Normand, 
 K. Raghavachari, A. Rendell, J. C. Burant, S. S. Iyengar, J. Tomasi, 
 M. Cossi, N. Rega, J. M. Millam, M. Klene, J. E. Knox, J. B. Cross, 
 V. Bakken, C. Adamo, J. Jaramillo, R. Gomperts, R. E. Stratmann, 
 O. Yazyev, A. J. Austin, R. Cammi, C. Pomelli, J. W. Ochterski, 
 R. L. Martin, K. Morokuma, V. G. Zakrzewski, G. A. Voth, 
 P. Salvador, J. J. Dannenberg, S. Dapprich, P. V. Parandekar, 
 N. J. Mayhall, A. D. Daniels, O. Farkas, J. B. Foresman, 
 J. V. Ortiz, J. Cioslowski, and D. J. Fox, 
 Gaussian, Inc., Wallingford CT, 2014.
 
 *******************************************
 Gaussian DV:  ES64L-GDVRevI.03+  2-May-2015
                 28-Oct-2015 
 *******************************************
 %chk=h2o
 %nproc=2
 Will use up to    2 processors via shared memory.
 --------------------------------
 #p hf/6-31g cis(full,nstates=12)
 --------------------------------
 1/38=1,172=1/1;
 2/12=2,17=6,18=5,40=1/2;
 3/5=1,6=6,11=9,25=1,30=1/1,2,3,8;
 4//1;
 5/5=2,38=5/2;
 8/6=1,10=90,108=12/1,4;
 9/41=12,42=3/14;
 6/7=2,8=2,9=2,10=2/1;
 99/5=1,9=1/99;
 Leave Link    1 at Wed Oct 28 10:08:49 2015, MaxMem=           0 cpu:               0.1 elap:               0.0
 (Enter /home/gauss/gdvi03p/gdv/l101.exe)
 --------------
 Water singlets
 --------------
 Symbolic Z-matrix:
 Charge =  0 Multiplicity = 1
 O                     0.       -0.07579   0. 
 H                     0.86681   0.60144   0. 
 H                    -0.86681   0.60144   0. 
 
 ITRead=  0  0  0
 MicOpt= -1 -1 -1
 NAtoms=      3 NQM=        3 NQMF=       0 NMMI=      0 NMMIF=      0
                NMic=       0 NMicF=      0.
                    Isotopes and Nuclear Properties:
 (Nuclear quadrupole moments (NQMom) in fm**2, nuclear magnetic moments (NMagM)
  in nuclear magnetons)

  Atom         1           2           3
 IAtWgt=          16           1           1
 AtmWgt=  15.9949146   1.0078250   1.0078250
 NucSpn=           0           1           1
 AtZEff=   0.0000000   0.0000000   0.0000000
 NQMom=    0.0000000   0.0000000   0.0000000
 NMagM=    0.0000000   2.7928460   2.7928460
 AtZNuc=   8.0000000   1.0000000   1.0000000
 Leave Link  101 at Wed Oct 28 10:08:49 2015, MaxMem=    33554432 cpu:               0.2 elap:               0.1
 (Enter /home/gauss/gdvi03p/gdv/l202.exe)
                          Input orientation:                          
 ---------------------------------------------------------------------
 Center     Atomic      Atomic             Coordinates (Angstroms)
 Number     Number       Type             X           Y           Z
 ---------------------------------------------------------------------
      1          8           0        0.000000   -0.075792    0.000000
      2          1           0        0.866812    0.601436    0.000000
      3          1           0       -0.866812    0.601436    0.000000
 ---------------------------------------------------------------------
                    Distance matrix (angstroms):
                    1          2          3
     1  O    0.000000
     2  H    1.100000   0.000000
     3  H    1.100000   1.733624   0.000000
 Stoichiometry    H2O
 Framework group  C2V[C2(O),SGV(H2)]
 Deg. of freedom     2
 Full point group                 C2V     NOp   4
 Largest Abelian subgroup         C2V     NOp   4
 Largest concise Abelian subgroup C2      NOp   2
                         Standard orientation:                         
 ---------------------------------------------------------------------
 Center     Atomic      Atomic             Coordinates (Angstroms)
 Number     Number       Type             X           Y           Z
 ---------------------------------------------------------------------
      1          8           0        0.000000    0.000000    0.135446
      2          1           0        0.000000    0.866812   -0.541782
      3          1           0        0.000000   -0.866812   -0.541782
 ---------------------------------------------------------------------
 Rotational constants (GHZ):    615.5709784    333.6970768    216.3922350
 Leave Link  202 at Wed Oct 28 10:08:49 2015, MaxMem=    33554432 cpu:               0.0 elap:               0.0
 (Enter /home/gauss/gdvi03p/gdv/l301.exe)
 Standard basis: 6-31G (6D, 7F)
 Ernie: Thresh=  0.10000D-02 Tol=  0.10000D-05 Strict=F.
 There are     7 symmetry adapted cartesian basis functions of A1  symmetry.
 There are     0 symmetry adapted cartesian basis functions of A2  symmetry.
 There are     2 symmetry adapted cartesian basis functions of B1  symmetry.
 There are     4 symmetry adapted cartesian basis functions of B2  symmetry.
 There are     7 symmetry adapted basis functions of A1  symmetry.
 There are     0 symmetry adapted basis functions of A2  symmetry.
 There are     2 symmetry adapted basis functions of B1  symmetry.
 There are     4 symmetry adapted basis functions of B2  symmetry.
    13 basis functions,    30 primitive gaussians,    13 cartesian basis functions
     5 alpha electrons        5 beta electrons
       nuclear repulsion energy         8.0023664856 Hartrees.
 IExCor=    0 DFT=F Ex=HF Corr=None ExCW=0 ScaHFX=  1.000000
 ScaDFX=  1.000000  1.000000  1.000000  1.000000 ScalE2=  1.000000  1.000000
 IRadAn=      0 IRanWt=     -1 IRanGd=            0 ICorTp=0 IEmpDi=  4
 NAtoms=    3 NActive=    3 NUniq=    2 SFac= 2.25D+00 NAtFMM=   60 NAOKFM=F Big=F
 Integral buffers will be    131072 words long.
 Raffenetti 1 integral format.
 Two-electron integral symmetry is turned on.
 Leave Link  301 at Wed Oct 28 10:08:49 2015, MaxMem=    33554432 cpu:               0.1 elap:               0.0
 (Enter /home/gauss/gdvi03p/gdv/l302.exe)
 NPDir=0 NMtPBC=     1 NCelOv=     1 NCel=       1 NClECP=     1 NCelD=      1
         NCelK=      1 NCelE2=     1 NClLst=     1 CellRange=     0.0.
 One-electron integrals computed using PRISM.
 One-electron integral symmetry used in STVInt
 NBasis=    13 RedAO= T EigKep=  8.92D-02  NBF=     7     0     2     4
 NBsUse=    13 1.00D-06 EigRej= -1.00D+00 NBFU=     7     0     2     4
 Leave Link  302 at Wed Oct 28 10:08:49 2015, MaxMem=    33554432 cpu:               0.2 elap:               0.1
 (Enter /home/gauss/gdvi03p/gdv/l303.exe)
 DipDrv:  MaxL=1.
 Leave Link  303 at Wed Oct 28 10:08:49 2015, MaxMem=    33554432 cpu:               0.0 elap:               0.0
 (Enter /home/gauss/gdvi03p/gdv/l308.exe)
 Leave Link  308 at Wed Oct 28 10:08:49 2015, MaxMem=    33554432 cpu:               0.0 elap:               0.0
 (Enter /home/gauss/gdvi03p/gdv/l401.exe)
 ExpMin= 1.61D-01 ExpMax= 5.48D+03 ExpMxC= 8.25D+02 IAcc=1 IRadAn=         1 AccDes= 0.00D+00
 Harris functional with IExCor=  205 and IRadAn=       1 diagonalized for initial guess.
 HarFok:  IExCor=  205 AccDes= 0.00D+00 IRadAn=         1 IDoV= 1 UseB2=F ITyADJ=14
 ICtDFT=  3500011 ScaDFX=  1.000000  1.000000  1.000000  1.000000
 FoFCou: FMM=F IPFlag=           0 FMFlag=      100000 FMFlg1=           0
         NFxFlg=           0 DoJE=T BraDBF=F KetDBF=T FulRan=T
         wScrn=  0.000000 ICntrl=       500 IOpCl=  0 I1Cent=   200000004 NGrid=           0
         NMat0=    1 NMatS0=      1 NMatT0=    0 NMatD0=    1 NMtDS0=    0 NMtDT0=    0
 Petite list used in FoFCou.
 Harris En= -76.0621278300342    
 JPrj=0 DoOrth=F DoCkMO=F.
 Initial guess orbital symmetries:
       Occupied  (A1) (A1) (B2) (A1) (B1)
       Virtual   (A1) (B2) (A1) (B2) (B1) (A1) (B2) (A1)
 The electronic state of the initial guess is 1-A1.
 Leave Link  401 at Wed Oct 28 10:08:50 2015, MaxMem=    33554432 cpu:               0.2 elap:               0.1
 (Enter /home/gauss/gdvi03p/gdv/l502.exe)
 Keep R1 ints in memory in symmetry-blocked form, NReq=809751.
 FoFCou: FMM=F IPFlag=           0 FMFlag=           0 FMFlg1=           0
         NFxFlg=           0 DoJE=F BraDBF=F KetDBF=F FulRan=T
         wScrn=  0.000000 ICntrl=       600 IOpCl=  0 I1Cent=           0 NGrid=           0
         NMat0=    1 NMatS0=     91 NMatT0=    0 NMatD0=    1 NMtDS0=    0 NMtDT0=    0
 Petite list used in FoFCou.
 Closed shell SCF:
 Using DIIS extrapolation, IDIIS=  1040.
 NGot=    33554432 LenX=    33550949 LenY=    33550067
 Requested convergence on RMS density matrix=1.00D-08 within 128 cycles.
 Requested convergence on MAX density matrix=1.00D-06.
 Requested convergence on             energy=1.00D-06.
 No special actions if energy rises.

 Cycle   1  Pass 1  IDiag  1:
 E= -75.8742451904177    
 DIIS: error= 8.85D-02 at cycle   1 NSaved=   1.
 NSaved= 1 IEnMin= 1 EnMin= -75.8742451904177     IErMin= 1 ErrMin= 8.85D-02
 ErrMax= 8.85D-02  0.00D+00 EMaxC= 1.00D-01 BMatC= 1.02D-01 BMatP= 1.02D-01
 IDIUse=3 WtCom= 1.15D-01 WtEn= 8.85D-01
 Coeff-Com:  0.100D+01
 Coeff-En:   0.100D+01
 Coeff:      0.100D+01
 Gap=     0.533 Goal=   None    Shift=    0.000
 GapD=    0.533 DampG=2.000 DampE=0.500 DampFc=1.0000 IDamp=-1.
 RMSDP=2.33D-02 MaxDP=1.22D-01              OVMax= 1.43D-01

 Cycle   2  Pass 1  IDiag  1:
 E= -75.9192038872068     Delta-E=       -0.044958696789 Rises=F Damp=F
 DIIS: error= 5.89D-02 at cycle   2 NSaved=   2.
 NSaved= 2 IEnMin= 2 EnMin= -75.9192038872068     IErMin= 2 ErrMin= 5.89D-02
 ErrMax= 5.89D-02  0.00D+00 EMaxC= 1.00D-01 BMatC= 4.64D-02 BMatP= 1.02D-01
 IDIUse=3 WtCom= 4.11D-01 WtEn= 5.89D-01
 Coeff-Com:  0.394D+00 0.606D+00
 Coeff-En:   0.214D+00 0.786D+00
 Coeff:      0.288D+00 0.712D+00
 Gap=     0.674 Goal=   None    Shift=    0.000
 RMSDP=1.22D-02 MaxDP=6.44D-02 DE=-4.50D-02 OVMax= 4.96D-02

 Cycle   3  Pass 1  IDiag  1:
 E= -75.9510567551331     Delta-E=       -0.031852867926 Rises=F Damp=F
 DIIS: error= 1.24D-02 at cycle   3 NSaved=   3.
 NSaved= 3 IEnMin= 3 EnMin= -75.9510567551331     IErMin= 3 ErrMin= 1.24D-02
 ErrMax= 1.24D-02  0.00D+00 EMaxC= 1.00D-01 BMatC= 1.65D-03 BMatP= 4.64D-02
 IDIUse=3 WtCom= 8.76D-01 WtEn= 1.24D-01
 Coeff-Com: -0.420D-01 0.114D+00 0.928D+00
 Coeff-En:   0.000D+00 0.000D+00 0.100D+01
 Coeff:     -0.367D-01 0.100D+00 0.937D+00
 Gap=     0.657 Goal=   None    Shift=    0.000
 RMSDP=2.10D-03 MaxDP=1.24D-02 DE=-3.19D-02 OVMax= 1.40D-02

 Cycle   4  Pass 1  IDiag  1:
 E= -75.9524893365544     Delta-E=       -0.001432581421 Rises=F Damp=F
 DIIS: error= 2.26D-03 at cycle   4 NSaved=   4.
 NSaved= 4 IEnMin= 4 EnMin= -75.9524893365544     IErMin= 4 ErrMin= 2.26D-03
 ErrMax= 2.26D-03  0.00D+00 EMaxC= 1.00D-01 BMatC= 3.67D-05 BMatP= 1.65D-03
 IDIUse=3 WtCom= 9.77D-01 WtEn= 2.26D-02
 Coeff-Com:  0.104D-01-0.782D-01-0.321D+00 0.139D+01
 Coeff-En:   0.000D+00 0.000D+00 0.000D+00 0.100D+01
 Coeff:      0.102D-01-0.764D-01-0.314D+00 0.138D+01
 Gap=     0.663 Goal=   None    Shift=    0.000
 RMSDP=4.65D-04 MaxDP=3.43D-03 DE=-1.43D-03 OVMax= 1.29D-03

 Cycle   5  Pass 1  IDiag  1:
 E= -75.9525285186356     Delta-E=       -0.000039182081 Rises=F Damp=F
 DIIS: error= 1.95D-04 at cycle   5 NSaved=   5.
 NSaved= 5 IEnMin= 5 EnMin= -75.9525285186356     IErMin= 5 ErrMin= 1.95D-04
 ErrMax= 1.95D-04  0.00D+00 EMaxC= 1.00D-01 BMatC= 2.10D-07 BMatP= 3.67D-05
 IDIUse=3 WtCom= 9.98D-01 WtEn= 1.95D-03
 Coeff-Com: -0.231D-02 0.223D-01 0.830D-01-0.470D+00 0.137D+01
 Coeff-En:   0.000D+00 0.000D+00 0.000D+00 0.000D+00 0.100D+01
 Coeff:     -0.231D-02 0.223D-01 0.828D-01-0.469D+00 0.137D+01
 Gap=     0.663 Goal=   None    Shift=    0.000
 RMSDP=7.45D-05 MaxDP=4.41D-04 DE=-3.92D-05 OVMax= 4.21D-04

 Cycle   6  Pass 1  IDiag  1:
 E= -75.9525290259967     Delta-E=       -0.000000507361 Rises=F Damp=F
 DIIS: error= 1.68D-05 at cycle   6 NSaved=   6.
 NSaved= 6 IEnMin= 6 EnMin= -75.9525290259967     IErMin= 6 ErrMin= 1.68D-05
 ErrMax= 1.68D-05  0.00D+00 EMaxC= 1.00D-01 BMatC= 4.40D-09 BMatP= 2.10D-07
 IDIUse=1 WtCom= 1.00D+00 WtEn= 0.00D+00
 Coeff-Com:  0.808D-03-0.828D-02-0.302D-01 0.184D+00-0.590D+00 0.144D+01
 Coeff:      0.808D-03-0.828D-02-0.302D-01 0.184D+00-0.590D+00 0.144D+01
 Gap=     0.663 Goal=   None    Shift=    0.000
 RMSDP=1.14D-05 MaxDP=5.61D-05 DE=-5.07D-07 OVMax= 7.26D-05

 Cycle   7  Pass 1  IDiag  1:
 E= -75.9525290398912     Delta-E=       -0.000000013894 Rises=F Damp=F
 DIIS: error= 6.39D-06 at cycle   7 NSaved=   7.
 NSaved= 7 IEnMin= 7 EnMin= -75.9525290398912     IErMin= 7 ErrMin= 6.39D-06
 ErrMax= 6.39D-06  0.00D+00 EMaxC= 1.00D-01 BMatC= 4.26D-10 BMatP= 4.40D-09
 IDIUse=1 WtCom= 1.00D+00 WtEn= 0.00D+00
 Coeff-Com: -0.104D-03 0.131D-02 0.457D-02-0.348D-01 0.131D+00-0.589D+00
 Coeff-Com:  0.149D+01
 Coeff:     -0.104D-03 0.131D-02 0.457D-02-0.348D-01 0.131D+00-0.589D+00
 Coeff:      0.149D+01
 Gap=     0.663 Goal=   None    Shift=    0.000
 RMSDP=3.60D-06 MaxDP=1.74D-05 DE=-1.39D-08 OVMax= 2.70D-05

 Cycle   8  Pass 1  IDiag  1:
 E= -75.9525290412079     Delta-E=       -0.000000001317 Rises=F Damp=F
 DIIS: error= 6.42D-07 at cycle   8 NSaved=   8.
 NSaved= 8 IEnMin= 8 EnMin= -75.9525290412079     IErMin= 8 ErrMin= 6.42D-07
 ErrMax= 6.42D-07  0.00D+00 EMaxC= 1.00D-01 BMatC= 6.23D-12 BMatP= 4.26D-10
 IDIUse=1 WtCom= 1.00D+00 WtEn= 0.00D+00
 Coeff-Com: -0.141D-04 0.623D-04 0.311D-03 0.304D-03-0.637D-02 0.810D-01
 Coeff-Com: -0.353D+00 0.128D+01
 Coeff:     -0.141D-04 0.623D-04 0.311D-03 0.304D-03-0.637D-02 0.810D-01
 Coeff:     -0.353D+00 0.128D+01
 Gap=     0.663 Goal=   None    Shift=    0.000
 RMSDP=4.98D-07 MaxDP=1.55D-06 DE=-1.32D-09 OVMax= 3.61D-06

 Cycle   9  Pass 1  IDiag  1:
 E= -75.9525290412287     Delta-E=       -0.000000000021 Rises=F Damp=F
 DIIS: error= 9.11D-08 at cycle   9 NSaved=   9.
 NSaved= 9 IEnMin= 9 EnMin= -75.9525290412287     IErMin= 9 ErrMin= 9.11D-08
 ErrMax= 9.11D-08  0.00D+00 EMaxC= 1.00D-01 BMatC= 8.05D-14 BMatP= 6.23D-12
 IDIUse=1 WtCom= 1.00D+00 WtEn= 0.00D+00
 Coeff-Com:  0.159D-05 0.120D-05-0.110D-04-0.391D-03 0.227D-02-0.183D-01
 Coeff-Com:  0.737D-01-0.331D+00 0.127D+01
 Coeff:      0.159D-05 0.120D-05-0.110D-04-0.391D-03 0.227D-02-0.183D-01
 Coeff:      0.737D-01-0.331D+00 0.127D+01
 Gap=     0.663 Goal=   None    Shift=    0.000
 RMSDP=6.15D-08 MaxDP=2.30D-07 DE=-2.08D-11 OVMax= 4.45D-07

 Cycle  10  Pass 1  IDiag  1:
 E= -75.9525290412290     Delta-E=        0.000000000000 Rises=F Damp=F
 DIIS: error= 3.66D-09 at cycle  10 NSaved=  10.
 NSaved=10 IEnMin=10 EnMin= -75.9525290412290     IErMin=10 ErrMin= 3.66D-09
 ErrMax= 3.66D-09  0.00D+00 EMaxC= 1.00D-01 BMatC= 2.87D-16 BMatP= 8.05D-14
 IDIUse=1 WtCom= 1.00D+00 WtEn= 0.00D+00
 Coeff-Com: -0.229D-06 0.727D-06 0.415D-05 0.162D-04-0.140D-03 0.138D-02
 Coeff-Com: -0.647D-02 0.337D-01-0.176D+00 0.115D+01
 Coeff:     -0.229D-06 0.727D-06 0.415D-05 0.162D-04-0.140D-03 0.138D-02
 Coeff:     -0.647D-02 0.337D-01-0.176D+00 0.115D+01
 Gap=     0.663 Goal=   None    Shift=    0.000
 RMSDP=4.14D-09 MaxDP=1.31D-08 DE=-2.27D-13 OVMax= 2.69D-08

 SCF Done:  E(RHF) =  -75.9525290412     A.U. after   10 cycles
            NFock= 10  Conv=0.41D-08     -V/T= 2.0056
 KE= 7.553331820733D+01 PE=-1.963296409436D+02 EE= 3.684142720937D+01
 Leave Link  502 at Wed Oct 28 10:08:50 2015, MaxMem=    33554432 cpu:               0.1 elap:               0.1
 (Enter /home/gauss/gdvi03p/gdv/l801.exe)
 Range of M.O.s used for correlation:     1    13
 NBasis=    13 NAE=     5 NBE=     5 NFC=     0 NFV=     0
 NROrb=     13 NOA=     5 NOB=     5 NVA=     8 NVB=     8
 Leave Link  801 at Wed Oct 28 10:08:50 2015, MaxMem=    33554432 cpu:               0.0 elap:               0.0
 (Enter /home/gauss/gdvi03p/gdv/l804.exe)
 Closed-shell transformation, MDV=    33554432 ITran=3 ISComp=1.
 Unit  1 TFree=          7305 TCopy=        118079.
 Semi-Direct transformation.
 ModeAB=           4 MOrb=             5 LenV=      33430788
 LASXX=         2335 LTotXX=        2335 LenRXX=        5300
 LTotAB=        2965 MaxLAS=        5265 LenRXY=           0
 NonZer=        7635 LenScr=      785920 LnRSAI=        5265
 LnScr1=      785920 LExtra=           0 Total=      1582405
 MaxDsk=          -1 SrtSym=           T ITran=            3
 DoSDTr:  NPSUse=  2
 JobTyp=0 Pass  1:  I=   1 to   5.
 (rs|ai) integrals will be sorted in core.
 Complete sort for first half transformation.
 First half transformation complete.
 Complete sort for second half transformation.
 Second half transformation complete.
 Spin components of T(2) and E(2):
     alpha-alpha T2 =       0.5237386265D-02 E2=     -0.1649863790D-01
     alpha-beta  T2 =       0.3677591696D-01 E2=     -0.1091225582D+00
     beta-beta   T2 =       0.5237386265D-02 E2=     -0.1649863790D-01
 ANorm=    0.1023352671D+01
 E2 =    -0.1421198340D+00 EUMP2 =    -0.76094648875231D+02
 Leave Link  804 at Wed Oct 28 10:08:50 2015, MaxMem=    33554432 cpu:               0.1 elap:               0.0
 (Enter /home/gauss/gdvi03p/gdv/l914.exe)
 RHF ground state
 MDV=    33554432 DFT=F DoStab=F Mixed=F DoRPA=F DoScal=F NonHer=F
 Making orbital integer symmetry assigments:
 Orbital symmetries:
       Occupied  (A1) (A1) (B2) (A1) (B1)
       Virtual   (A1) (B2) (B2) (A1) (B1) (A1) (B2) (A1)
 FoFJK:  IHMeth= 1 ICntrl=       0 DoSepK=F KAlg= 0 I1Cent=           0 FoldK=F
 IRaf=         0 NMat=       1 IRICut=       1 DoRegI=T DoRafI=F ISym2E= 1 IDoP0=0 IntGTp=1.
 FoFCou: FMM=F IPFlag=           0 FMFlag=      100000 FMFlg1=           0
         NFxFlg=           0 DoJE=F BraDBF=F KetDBF=F FulRan=T
         wScrn=  0.000000 ICntrl=         0 IOpCl=  1 I1Cent=           0 NGrid=           0
         NMat0=    1 NMatS0=      1 NMatT0=    0 NMatD0=    1 NMtDS0=    0 NMtDT0=    0
 Petite list used in FoFCou.
    40 initial guesses have been made.
 Convergence on wavefunction:    0.001000000000000
 Davidson Disk Diagonalization:  ConvIn= 1.00D-03 SkipCon=T Conv= 1.00D-03.
 Max sub-space:   200 roots to seek:    48 dimension of matrix:           80
 *** WARNING: Number of orthogonal guesses is           40
 Iteration     1 Dimension    40 NMult     0 NNew     40
 New state      2 was old state      3
 New state      3 was old state      2
 New state      9 was old state     11
 New state     11 was old state     13
 Excitation Energies [eV] at current iteration:
 Root      1 :     7.714790710106488
 Root      2 :     9.306927965117710
 Root      3 :    10.289968674628670
 Root      4 :    11.732284353004820
 Root      5 :    12.962882248576810
 Root      6 :    16.897882759913890
 Root      7 :    29.263224140781990
 Root      8 :    30.068379093367400
 Root      9 :    30.274174831467610
 Root     10 :    31.011000704396190
 Root     11 :    31.886095316749780
 Root     12 :    32.056321253796270
 Root     13 :    32.742835424379010
 Root     14 :    33.325262379201780
 Root     15 :    33.782157715882600
 Root     16 :    34.926130224070140
 Root     17 :    35.380316884950300
 Root     18 :    35.570800639914470
 Root     19 :    35.883994478198420
 Root     20 :    37.675361445798580
 Root     21 :    38.912420036578690
 Root     22 :    39.007945355356970
 Root     23 :    45.750517669708210
 Root     24 :    47.406217032798630
 Root     25 :    48.664095814624150
 Root     26 :    50.124458632491360
 Root     27 :    51.904098856058520
 Root     28 :    52.486569293554450
 Root     29 :    52.603344268665290
 Root     30 :    55.978511391695340
 Root     31 :    58.276732172029910
 Root     32 :    69.866033453390260
 Root     33 :   549.272526603643700
 Root     34 :   549.718232402872000
 Root     35 :   567.932281271226200
 Root     36 :   569.366044137267500
 Root     37 :   574.103678469406100
 Root     38 :   576.473650084084600
 Root     39 :   577.830519166842500
 Root     40 :   587.421203471592200
 Convergence achieved for final wavefunctions.
 ***********************************************************************
 Excited states from <AA,BB:AA,BB> singles matrix:
 ***********************************************************************
 
 1PDM for each excited state written to RWF  633
 Ground to excited state transition densities written to RWF  633
 Ground to excited state transition electric dipole moments (Au):
       state          X           Y           Z        Dip. S.      Osc.
         1         0.1734      0.0000      0.0000      0.0301      0.0057
         2         0.0000      0.0000      0.0000      0.0000      0.0000
         3         0.0000      0.0000      0.6579      0.4328      0.1091
         4         0.0000      0.2740      0.0000      0.0751      0.0216
         5         0.0000      1.5361      0.0000      2.3597      0.7494
         6         0.0000      0.0000      1.0685      1.1417      0.4726
         7         0.3650      0.0000      0.0000      0.1333      0.0955
         8         0.0000      0.0000     -0.0470      0.0022      0.0016
         9         0.0000      0.0000      0.0000      0.0000      0.0000
        10         0.0000      0.0000      0.1104      0.0122      0.0093
        11         0.0000     -0.1846      0.0000      0.0341      0.0266
        12         0.0290      0.0000      0.0000      0.0008      0.0007
 Ground to excited state transition velocity dipole moments (Au):
       state          X           Y           Z        Dip. S.      Osc.
         1        -0.1161      0.0000      0.0000      0.0135      0.0317
         2         0.0000      0.0000      0.0000      0.0000      0.0000
         3         0.0000      0.0000     -0.2571      0.0661      0.1165
         4         0.0000     -0.1136      0.0000      0.0129      0.0200
         5         0.0000     -0.5965      0.0000      0.3559      0.4980
         6         0.0000      0.0000     -0.4816      0.2319      0.2490
         7        -0.1948      0.0000      0.0000      0.0380      0.0235
         8         0.0000      0.0000      0.0641      0.0041      0.0025
         9         0.0000      0.0000      0.0000      0.0000      0.0000
        10         0.0000      0.0000     -0.1504      0.0226      0.0132
        11         0.0000      0.1794      0.0000      0.0322      0.0183
        12         0.1292      0.0000      0.0000      0.0167      0.0094
 Ground to excited state transition magnetic dipole moments (Au):
       state          X           Y           Z
         1         0.0000      0.3456      0.0000
         2         0.0000      0.0000     -0.4671
         3         0.0000      0.0000      0.0000
         4         0.5285      0.0000      0.0000
         5         0.0604      0.0000      0.0000
         6         0.0000      0.0000      0.0000
         7         0.0000     -0.1870      0.0000
         8         0.0000      0.0000      0.0000
         9         0.0000      0.0000     -0.2311
        10         0.0000      0.0000      0.0000
        11        -0.2147      0.0000      0.0000
        12         0.0000      0.2074      0.0000
 Ground to excited state transition velocity quadrupole moments (Au):
       state          XX          YY          ZZ          XY          XZ          YZ
         1         0.0000      0.0000      0.0000      0.0000      0.1015      0.0000
         2         0.0000      0.0000      0.0000      0.1845      0.0000      0.0000
         3        -0.0480      0.0737      0.1669      0.0000      0.0000      0.0000
         4         0.0000      0.0000      0.0000      0.0000      0.0000      0.1803
         5         0.0000      0.0000      0.0000      0.0000      0.0000      0.6162
         6        -0.0758      1.2063      0.3002      0.0000      0.0000      0.0000
         7         0.0000      0.0000      0.0000      0.0000     -0.1456      0.0000
         8         0.2565     -0.7473     -0.5581      0.0000      0.0000      0.0000
         9         0.0000      0.0000      0.0000     -0.4084      0.0000      0.0000
        10         0.8681      0.2287      0.0450      0.0000      0.0000      0.0000
        11         0.0000      0.0000      0.0000      0.0000      0.0000     -0.6511
        12         0.0000      0.0000      0.0000      0.0000      0.4457      0.0000
 <0|del|b> * <b|rxdel|0> + <0|del|b> * <b|delr+rdel|0>
 Rotatory Strengths (R) in cgs (10**-40 erg-esu-cm/Gauss)
       state          XX          YY          ZZ    R(velocity)    E-M Angle
         1         0.0000      0.0000      0.0000      0.0000       90.00
         2         0.0000      0.0000      0.0000      0.0000       90.00
         3         0.0000      0.0000      0.0000      0.0000       90.00
         4         0.0000      0.0000      0.0000      0.0000       90.00
         5         0.0000      0.0000      0.0000      0.0000       90.00
         6         0.0000      0.0000      0.0000      0.0000       90.00
         7         0.0000      0.0000      0.0000      0.0000       90.00
         8         0.0000      0.0000      0.0000      0.0000       90.00
         9         0.0000      0.0000      0.0000      0.0000       90.00
        10         0.0000      0.0000      0.0000      0.0000       90.00
        11         0.0000      0.0000      0.0000      0.0000       90.00
        12         0.0000      0.0000      0.0000      0.0000       90.00
 1/2[<0|r|b>*<b|rxdel|0> + (<0|rxdel|b>*<b|r|0>)*]
 Rotatory Strengths (R) in cgs (10**-40 erg-esu-cm/Gauss)
       state          XX          YY          ZZ     R(length)
         1         0.0000      0.0000      0.0000      0.0000
         2         0.0000      0.0000      0.0000      0.0000
         3         0.0000      0.0000      0.0000      0.0000
         4         0.0000      0.0000      0.0000      0.0000
         5         0.0000      0.0000      0.0000      0.0000
         6         0.0000      0.0000      0.0000      0.0000
         7         0.0000      0.0000      0.0000      0.0000
         8         0.0000      0.0000      0.0000      0.0000
         9         0.0000      0.0000      0.0000      0.0000
        10         0.0000      0.0000      0.0000      0.0000
        11         0.0000      0.0000      0.0000      0.0000
        12         0.0000      0.0000      0.0000      0.0000
  1/2[<0|del|b>*<b|r|0> + (<0|r|b>*<b|del|0>)*] (Au)
       state          X           Y           Z        Dip. S.   Osc.(frdel)
         1        -0.0201      0.0000      0.0000      0.0201      0.0134
         2         0.0000      0.0000      0.0000      0.0000      0.0000
         3         0.0000      0.0000     -0.1691      0.1691      0.1127
         4         0.0000     -0.0311      0.0000      0.0311      0.0207
         5         0.0000     -0.9164      0.0000      0.9164      0.6109
         6         0.0000      0.0000     -0.5145      0.5145      0.3430
         7        -0.0711      0.0000      0.0000      0.0711      0.0474
         8         0.0000      0.0000     -0.0030      0.0030      0.0020
         9         0.0000      0.0000      0.0000      0.0000      0.0000
        10         0.0000      0.0000     -0.0166      0.0166      0.0111
        11         0.0000     -0.0331      0.0000      0.0331      0.0221
        12         0.0038      0.0000      0.0000     -0.0038     -0.0025

 Excitation energies and oscillator strengths:
 
 Excited State   1:      Singlet-B1     7.7148 eV  160.71 nm  f=0.0057  <S**2>=0.000
       5 ->  6         0.69952
 This state for optimization and/or second-order correction.
 Total Energy, E(CIS) =  -75.6690156993    
 Copying the excited state density for this state as the 1-particle RhoCI density.
 
 Excited State   2:      Singlet-A2     9.3069 eV  133.22 nm  f=0.0000  <S**2>=0.000
       5 ->  7         0.69586
 
 Excited State   3:      Singlet-A1    10.2900 eV  120.49 nm  f=0.1091  <S**2>=0.000
       3 ->  7        -0.16302
       4 ->  6         0.68179
 
 Excited State   4:      Singlet-B2    11.7323 eV  105.68 nm  f=0.0216  <S**2>=0.000
       3 ->  6        -0.32827
       4 ->  7         0.61799
 
 Excited State   5:      Singlet-B2    12.9629 eV   95.65 nm  f=0.7494  <S**2>=0.000
       3 ->  6         0.62172
       4 ->  7         0.32929
 
 Excited State   6:      Singlet-A1    16.8979 eV   73.37 nm  f=0.4726  <S**2>=0.000
       3 ->  7         0.67023
       4 ->  6         0.15623
       5 -> 10        -0.12872
 
 Excited State   7:      Singlet-B1    29.2632 eV   42.37 nm  f=0.0955  <S**2>=0.000
       5 ->  9         0.61790
       5 -> 11        -0.32809
 
 Excited State   8:      Singlet-A1    30.0684 eV   41.23 nm  f=0.0016  <S**2>=0.000
       2 ->  6         0.65521
       5 -> 10         0.24540
 
 Excited State   9:      Singlet-A2    30.2742 eV   40.95 nm  f=0.0000  <S**2>=0.000
       5 ->  7        -0.10165
       5 ->  8         0.69400
 
 Excited State  10:      Singlet-A1    31.0110 eV   39.98 nm  f=0.0093  <S**2>=0.000
       2 ->  6        -0.12454
       4 ->  9         0.48307
       4 -> 11        -0.27207
       5 -> 10         0.41280
 
 Excited State  11:      Singlet-B2    31.8861 eV   38.88 nm  f=0.0266  <S**2>=0.000
       2 ->  7         0.67027
       4 ->  8        -0.19503
 
 Excited State  12:      Singlet-B1    32.0563 eV   38.68 nm  f=0.0007  <S**2>=0.000
       4 -> 10         0.70264
 SavETr:  write IOETrn=   770 NScale= 10 NData=  16 NLR=1 NState=   40 LETran=     730.
 Leave Link  914 at Wed Oct 28 10:08:50 2015, MaxMem=    33554432 cpu:               0.1 elap:               0.1
 (Enter /home/gauss/gdvi03p/gdv/l601.exe)
 Copying SCF densities to generalized density rwf, IOpCl= 0 IROHF=0.

 **********************************************************************

            Population analysis using the SCF density.

 **********************************************************************

 Orbital symmetries:
       Occupied  (A1) (A1) (B2) (A1) (B1)
       Virtual   (A1) (B2) (B2) (A1) (B1) (A1) (B2) (A1)
 The electronic state is 1-A1.
 Alpha  occ. eigenvalues --  -20.58853  -1.29384  -0.63750  -0.54023  -0.49664
 Alpha virt. eigenvalues --    0.16656   0.25488   1.00524   1.02844   1.16340
 Alpha virt. eigenvalues --    1.23352   1.36346   1.67820
          Condensed to atoms (all electrons):
               1          2          3
     1  O    8.317399   0.230190   0.230190
     2  H    0.230190   0.403594  -0.022674
     3  H    0.230190  -0.022674   0.403594
 Mulliken charges:
               1
     1  O   -0.777779
     2  H    0.388890
     3  H    0.388890
 Sum of Mulliken charges =   0.00000
 Mulliken charges with hydrogens summed into heavy atoms:
               1
     1  O    0.000000
 Electronic spatial extent (au):  <R**2>=             21.1178
 Charge=              0.0000 electrons
 Dipole moment (field-independent basis, Debye):
    X=              0.0000    Y=              0.0000    Z=             -2.6632  Tot=              2.6632
 Quadrupole moment (field-independent basis, Debye-Ang):
   XX=             -7.5126   YY=             -3.9886   ZZ=             -6.1603
   XY=              0.0000   XZ=              0.0000   YZ=              0.0000
 Traceless Quadrupole moment (field-independent basis, Debye-Ang):
   XX=             -1.6254   YY=              1.8986   ZZ=             -0.2732
   XY=              0.0000   XZ=              0.0000   YZ=              0.0000
 Octapole moment (field-independent basis, Debye-Ang**2):
  XXX=              0.0000  YYY=              0.0000  ZZZ=             -1.4478  XYY=              0.0000
  XXY=              0.0000  XXZ=             -0.3221  XZZ=              0.0000  YZZ=              0.0000
  YYZ=             -1.7501  XYZ=              0.0000
 Hexadecapole moment (field-independent basis, Debye-Ang**3):
 XXXX=             -5.5334 YYYY=             -6.9121 ZZZZ=             -7.1931 XXXY=              0.0000
 XXXZ=              0.0000 YYYX=              0.0000 YYYZ=              0.0000 ZZZX=              0.0000
 ZZZY=              0.0000 XXYY=             -2.4811 XXZZ=             -2.2022 YYZZ=             -1.8139
 XXYZ=              0.0000 YYXZ=              0.0000 ZZXY=              0.0000
 N-N= 8.002366485626D+00 E-N=-1.963296409725D+02  KE= 7.553331820733D+01
 Symmetry A1   KE= 6.772522626821D+01
 Symmetry A2   KE= 0.000000000000D+00
 Symmetry B1   KE= 4.616443527689D+00
 Symmetry B2   KE= 3.191648411434D+00
 Leave Link  601 at Wed Oct 28 10:08:50 2015, MaxMem=    33554432 cpu:               0.0 elap:               0.0
 (Enter /home/gauss/gdvi03p/gdv/l9999.exe)
 Unable to Open any file for archive entry.
 1\1\GINC-MEDUSA\SP\RCIS-Full\6-31G\H2O1\PLESTRAN\28-Oct-2015\0\\#p hf/
 6-31g cis(full,nstates=12)\\Water singlets\\0,1\O,0,0.,-0.0757918436,0
 .\H,0,0.866811829,0.6014357793,0.\H,0,-0.866811829,0.6014357793,0.\\Ve
 rsion=ES64L-GDVRevI.03+\State=1-A1\HF=-75.952529\MP2=-76.0946489\EFC=0
 .\RMSD=4.136e-09\PG=C02V [C2(O1),SGV(H2)]\\@
 The archive entry for this job was punched.


 ...THE PHYSICISTS HAVE MADE THEIR UNIVERSE, AND IF YOU DO NOT LIKE
 IT, YOU MUST MAKE YOUR OWN.
                               -- E. R. HARRISON IN "COSMOLOGY" (1980)
 Job cpu time:       0 days  0 hours  0 minutes  1.4 seconds.
 Elapsed time:       0 days  0 hours  0 minutes  0.6 seconds.
 File lengths (MBytes):  RWF=     18 Int=      0 D2E=      0 Chk=      1 Scr=      1
 Normal termination of Gaussian DV at Wed Oct 28 10:08:50 2015.
 Initial command:
 /home/gauss/gdvi03p/gdv/l1.exe "/home/GauScr/Gau-16819.inp" -scrdir="/home/GauScr/"
 Entering Link 1 = /home/gauss/gdvi03p/gdv/l1.exe PID=     16837.
  
 Copyright (c) 1988,1990,1992,1993,1995,1998,2003,2009,2015,
            Gaussian, Inc.  All Rights Reserved.
  
 This is the private, development version of
 the Gaussian(R) DV system of programs. It is based on
 the Gaussian(R) 09 system (copyright 2009, Gaussian, Inc.),
 the Gaussian(R) 03 system (copyright 2003, Gaussian, Inc.),
 the Gaussian(R) 98 system (copyright 1998, Gaussian, Inc.),
 the Gaussian(R) 94 system (copyright 1995, Gaussian, Inc.),
 the Gaussian 92(TM) system (copyright 1992, Gaussian, Inc.),
 the Gaussian 90(TM) system (copyright 1990, Gaussian, Inc.),
 the Gaussian 88(TM) system (copyright 1988, Gaussian, Inc.),
 the Gaussian 86(TM) system (copyright 1986, Carnegie Mellon
 University), and the Gaussian 82(TM) system (copyright 1983,
 Carnegie Mellon University). Gaussian is a federally registered
 trademark of Gaussian, Inc.
  
 This software contains proprietary and confidential information,
 including trade secrets, belonging to Gaussian, Inc.
  
 This software is provided under written license and may be
 used, copied, transmitted, or stored only in accord with that
 written license.
  
 The following legend is applicable only to US Government
 contracts under FAR:
  
                    RESTRICTED RIGHTS LEGEND
  
 Use, reproduction and disclosure by the US Government is
 subject to restrictions as set forth in subparagraphs (a)
 and (c) of the Commercial Computer Software - Restricted
 Rights clause in FAR 52.227-19.
  
 Gaussian, Inc.
 340 Quinnipiac St., Bldg. 40, Wallingford CT 06492
  
  
 ---------------------------------------------------------------
 Warning -- This program may not be used in any manner that
 competes with the business of Gaussian, Inc. or will provide
 assistance to any competitor of Gaussian, Inc.  The licensee
 of this program is prohibited from giving any competitor of
 Gaussian, Inc. access to this program.  By using this program,
 the user acknowledges that Gaussian, Inc. is engaged in the
 business of creating and licensing software in the field of
 computational chemistry and represents and warrants to the
 licensee that it is not a competitor of Gaussian, Inc. and that
 it will not use this program in any manner prohibited above.
 ---------------------------------------------------------------
  

 Cite this work as:
 Gaussian Development Version, Revision I.03+,
 M. J. Frisch, G. W. Trucks, H. B. Schlegel, G. E. Scuseria, 
 M. A. Robb, J. R. Cheeseman, G. Scalmani, V. Barone, B. Mennucci, 
 G. A. Petersson, H. Nakatsuji, M. Caricato, X. Li, H. P. Hratchian, 
 J. Bloino, B. G. Janesko, A. F. Izmaylov, A. Marenich, F. Lipparini, 
 G. Zheng, J. L. Sonnenberg, W. Liang, M. Hada, M. Ehara, K. Toyota, 
 R. Fukuda, J. Hasegawa, M. Ishida, T. Nakajima, Y. Honda, O. Kitao, 
 H. Nakai, T. Vreven, K. Throssell, J. A. Montgomery, Jr., 
 J. E. Peralta, F. Ogliaro, M. Bearpark, J. J. Heyd, E. Brothers, 
 K. N. Kudin, V. N. Staroverov, T. Keith, R. Kobayashi, J. Normand, 
 K. Raghavachari, A. Rendell, J. C. Burant, S. S. Iyengar, J. Tomasi, 
 M. Cossi, N. Rega, J. M. Millam, M. Klene, J. E. Knox, J. B. Cross, 
 V. Bakken, C. Adamo, J. Jaramillo, R. Gomperts, R. E. Stratmann, 
 O. Yazyev, A. J. Austin, R. Cammi, C. Pomelli, J. W. Ochterski, 
 R. L. Martin, K. Morokuma, V. G. Zakrzewski, G. A. Voth, 
 P. Salvador, J. J. Dannenberg, S. Dapprich, P. V. Parandekar, 
 N. J. Mayhall, A. D. Daniels, O. Farkas, J. B. Foresman, 
 J. V. Ortiz, J. Cioslowski, and D. J. Fox, 
 Gaussian, Inc., Wallingford CT, 2014.
 
 *******************************************
 Gaussian DV:  ES64L-GDVRevI.03+  2-May-2015
                 28-Oct-2015 
 *******************************************
 %chk=h2o
 %nproc=2
 Will use up to    2 processors via shared memory.
 --------------------------------------------------------------
 #p hf/6-31g geom=check guess=read cis(full,nstates=12,triplet)
 --------------------------------------------------------------
 1/29=2,38=1,172=1/1;
 2/12=2,40=1/2;
 3/5=1,6=6,11=9,14=-4,25=1,30=1,116=-2/1,2,3,8;
 4/5=1/1;
 5/5=2,38=6/2;
 8/6=1,10=90,108=12/1,4;
 9/41=12,42=3,48=3/14;
 6/7=2,8=2,9=2,10=2/1;
 99/5=1,9=1/99;
 Leave Link    1 at Wed Oct 28 10:08:50 2015, MaxMem=           0 cpu:               0.1 elap:               0.0
 (Enter /home/gauss/gdvi03p/gdv/l101.exe)
 --------------
 Water triplets
 --------------
 Structure from the checkpoint file:  "h2o.chk"
 Charge =  0 Multiplicity = 1
 Z-Matrix found in chk file.
 O,0,0.,-0.0757918436,0.
 H,0,0.866811829,0.6014357793,0.
 H,0,-0.866811829,0.6014357793,0.
 Recover connectivity data from disk.
 ITRead=  0  0  0
 MicOpt= -1 -1 -1
 NAtoms=      3 NQM=        3 NQMF=       0 NMMI=      0 NMMIF=      0
                NMic=       0 NMicF=      0.
                    Isotopes and Nuclear Properties:
 (Nuclear quadrupole moments (NQMom) in fm**2, nuclear magnetic moments (NMagM)
  in nuclear magnetons)

  Atom         1           2           3
 IAtWgt=          16           1           1
 AtmWgt=  15.9949146   1.0078250   1.0078250
 NucSpn=           0           1           1
 AtZEff=   5.6000000   1.0000000   1.0000000
 NQMom=    0.0000000   0.0000000   0.0000000
 NMagM=    0.0000000   2.7928460   2.7928460
 AtZNuc=   8.0000000   1.0000000   1.0000000
 Leave Link  101 at Wed Oct 28 10:08:50 2015, MaxMem=    33554432 cpu:               0.2 elap:               0.1
 (Enter /home/gauss/gdvi03p/gdv/l202.exe)
                          Input orientation:                          
 ---------------------------------------------------------------------
 Center     Atomic      Atomic             Coordinates (Angstroms)
 Number     Number       Type             X           Y           Z
 ---------------------------------------------------------------------
      1          8           0        0.000000   -0.075792    0.000000
      2          1           0        0.866812    0.601436    0.000000
      3          1           0       -0.866812    0.601436    0.000000
 ---------------------------------------------------------------------
                    Distance matrix (angstroms):
                    1          2          3
     1  O    0.000000
     2  H    1.100000   0.000000
     3  H    1.100000   1.733624   0.000000
 Stoichiometry    H2O
 Framework group  C2V[C2(O),SGV(H2)]
 Deg. of freedom     2
 Full point group                 C2V     NOp   4
 RotChk:  IX=0 Diff= 8.24D-16
 Largest Abelian subgroup         C2V     NOp   4
 Largest concise Abelian subgroup C2      NOp   2
                         Standard orientation:                         
 ---------------------------------------------------------------------
 Center     Atomic      Atomic             Coordinates (Angstroms)
 Number     Number       Type             X           Y           Z
 ---------------------------------------------------------------------
      1          8           0        0.000000    0.000000    0.135446
      2          1           0        0.000000    0.866812   -0.541782
      3          1           0        0.000000   -0.866812   -0.541782
 ---------------------------------------------------------------------
 Rotational constants (GHZ):    615.5709784    333.6970768    216.3922350
 Leave Link  202 at Wed Oct 28 10:08:50 2015, MaxMem=    33554432 cpu:               0.0 elap:               0.0
 (Enter /home/gauss/gdvi03p/gdv/l301.exe)
 Standard basis: 6-31G (6D, 7F)
 Ernie: Thresh=  0.10000D-02 Tol=  0.10000D-05 Strict=F.
 There are     7 symmetry adapted cartesian basis functions of A1  symmetry.
 There are     0 symmetry adapted cartesian basis functions of A2  symmetry.
 There are     2 symmetry adapted cartesian basis functions of B1  symmetry.
 There are     4 symmetry adapted cartesian basis functions of B2  symmetry.
 There are     7 symmetry adapted basis functions of A1  symmetry.
 There are     0 symmetry adapted basis functions of A2  symmetry.
 There are     2 symmetry adapted basis functions of B1  symmetry.
 There are     4 symmetry adapted basis functions of B2  symmetry.
    13 basis functions,    30 primitive gaussians,    13 cartesian basis functions
     5 alpha electrons        5 beta electrons
       nuclear repulsion energy         8.0023664856 Hartrees.
 IExCor=    0 DFT=F Ex=HF Corr=None ExCW=0 ScaHFX=  1.000000
 ScaDFX=  1.000000  1.000000  1.000000  1.000000 ScalE2=  1.000000  1.000000
 IRadAn=      0 IRanWt=     -1 IRanGd=            0 ICorTp=0 IEmpDi=  4
 NAtoms=    3 NActive=    3 NUniq=    2 SFac= 2.25D+00 NAtFMM=   60 NAOKFM=F Big=F
 Integral buffers will be    131072 words long.
 Raffenetti 1 integral format.
 Two-electron integral symmetry is turned on.
 Leave Link  301 at Wed Oct 28 10:08:50 2015, MaxMem=    33554432 cpu:               0.1 elap:               0.0
 (Enter /home/gauss/gdvi03p/gdv/l302.exe)
 NPDir=0 NMtPBC=     1 NCelOv=     1 NCel=       1 NClECP=     1 NCelD=      1
         NCelK=      1 NCelE2=     1 NClLst=     1 CellRange=     0.0.
 One-electron integrals computed using PRISM.
 One-electron integral symmetry used in STVInt
 NBasis=    13 RedAO= T EigKep=  8.92D-02  NBF=     7     0     2     4
 NBsUse=    13 1.00D-06 EigRej= -1.00D+00 NBFU=     7     0     2     4
 Leave Link  302 at Wed Oct 28 10:08:50 2015, MaxMem=    33554432 cpu:               0.2 elap:               0.1
 (Enter /home/gauss/gdvi03p/gdv/l303.exe)
 DipDrv:  MaxL=1.
 Leave Link  303 at Wed Oct 28 10:08:50 2015, MaxMem=    33554432 cpu:               0.0 elap:               0.0
 (Enter /home/gauss/gdvi03p/gdv/l308.exe)
 Leave Link  308 at Wed Oct 28 10:08:50 2015, MaxMem=    33554432 cpu:               0.0 elap:               0.0
 (Enter /home/gauss/gdvi03p/gdv/l401.exe)
 Initial guess from the checkpoint file:  "h2o.chk"
 B after Tr=     0.000000    0.000000    0.000000
         Rot=    1.000000    0.000000    0.000000    0.000000 Ang=   0.00 deg.
 Guess basis will be translated and rotated to current coordinates.
 JPrj=2 DoOrth=T DoCkMO=T.
 Initial guess orbital symmetries:
       Occupied  (A1) (A1) (B2) (A1) (B1)
       Virtual   (A1) (B2) (B2) (A1) (B1) (A1) (B2) (A1)
 The electronic state of the initial guess is 1-A1.
 Leave Link  401 at Wed Oct 28 10:08:50 2015, MaxMem=    33554432 cpu:               0.2 elap:               0.1
 (Enter /home/gauss/gdvi03p/gdv/l502.exe)
 Keep R1 ints in memory in symmetry-blocked form, NReq=809751.
 FoFCou: FMM=F IPFlag=           0 FMFlag=           0 FMFlg1=           0
         NFxFlg=           0 DoJE=F BraDBF=F KetDBF=F FulRan=T
         wScrn=  0.000000 ICntrl=       600 IOpCl=  0 I1Cent=           0 NGrid=           0
         NMat0=    1 NMatS0=     91 NMatT0=    0 NMatD0=    1 NMtDS0=    0 NMtDT0=    0
 Petite list used in FoFCou.
 Closed shell SCF:
 Using DIIS extrapolation, IDIIS=  1040.
 NGot=    33554432 LenX=    33550949 LenY=    33550067
 Requested convergence on RMS density matrix=1.00D-08 within 128 cycles.
 Requested convergence on MAX density matrix=1.00D-06.
 Requested convergence on             energy=1.00D-06.
 No special actions if energy rises.

 Cycle   1  Pass 1  IDiag  1:
 E= -75.9525290412290    
 DIIS: error= 3.18D-10 at cycle   1 NSaved=   1.
 NSaved= 1 IEnMin= 1 EnMin= -75.9525290412290     IErMin= 1 ErrMin= 3.18D-10
 ErrMax= 3.18D-10  0.00D+00 EMaxC= 1.00D-01 BMatC= 1.52D-18 BMatP= 1.52D-18
 IDIUse=1 WtCom= 1.00D+00 WtEn= 0.00D+00
 Coeff-Com:  0.100D+01
 Coeff:      0.100D+01
 Gap=     0.663 Goal=   None    Shift=    0.000
 Skip diagonalization as Alpha Fock matrix is already diagonal.
 RMSDP=0.00D+00 MaxDP=0.00D+00              OVMax= 0.00D+00

 SCF Done:  E(RHF) =  -75.9525290412     A.U. after    1 cycles
            NFock=  1  Conv=0.00D+00     -V/T= 2.0056
 KE= 7.553331820733D+01 PE=-1.963296409725D+02 EE= 3.684142723831D+01
 Leave Link  502 at Wed Oct 28 10:08:51 2015, MaxMem=    33554432 cpu:               0.1 elap:               0.1
 (Enter /home/gauss/gdvi03p/gdv/l801.exe)
 Range of M.O.s used for correlation:     1    13
 NBasis=    13 NAE=     5 NBE=     5 NFC=     0 NFV=     0
 NROrb=     13 NOA=     5 NOB=     5 NVA=     8 NVB=     8
 Leave Link  801 at Wed Oct 28 10:08:51 2015, MaxMem=    33554432 cpu:               0.0 elap:               0.0
 (Enter /home/gauss/gdvi03p/gdv/l804.exe)
 Closed-shell transformation, MDV=    33554432 ITran=3 ISComp=1.
 Unit  1 TFree=          7317 TCopy=        170483.
 Semi-Direct transformation.
 ModeAB=           4 MOrb=             5 LenV=      33430788
 LASXX=         2335 LTotXX=        2335 LenRXX=        5300
 LTotAB=        2965 MaxLAS=        5265 LenRXY=           0
 NonZer=        7635 LenScr=      785920 LnRSAI=        5265
 LnScr1=      785920 LExtra=           0 Total=      1582405
 MaxDsk=          -1 SrtSym=           T ITran=            3
 DoSDTr:  NPSUse=  2
 JobTyp=0 Pass  1:  I=   1 to   5.
 (rs|ai) integrals will be sorted in core.
 Complete sort for first half transformation.
 First half transformation complete.
 Complete sort for second half transformation.
 Second half transformation complete.
 Spin components of T(2) and E(2):
     alpha-alpha T2 =       0.5237386264D-02 E2=     -0.1649863790D-01
     alpha-beta  T2 =       0.3677591697D-01 E2=     -0.1091225582D+00
     beta-beta   T2 =       0.5237386264D-02 E2=     -0.1649863790D-01
 ANorm=    0.1023352671D+01
 E2 =    -0.1421198340D+00 EUMP2 =    -0.76094648875224D+02
 Leave Link  804 at Wed Oct 28 10:08:51 2015, MaxMem=    33554432 cpu:               0.1 elap:               0.0
 (Enter /home/gauss/gdvi03p/gdv/l914.exe)
 RHF ground state
 MDV=    33554432 DFT=F DoStab=F Mixed=F DoRPA=F DoScal=F NonHer=F
 Making orbital integer symmetry assigments:
 Orbital symmetries:
       Occupied  (A1) (A1) (B2) (A1) (B1)
       Virtual   (A1) (B2) (B2) (A1) (B1) (A1) (B2) (A1)
 FoFJK:  IHMeth= 1 ICntrl=       0 DoSepK=F KAlg= 0 I1Cent=           0 FoldK=F
 IRaf=         0 NMat=       1 IRICut=       1 DoRegI=T DoRafI=F ISym2E= 1 IDoP0=0 IntGTp=1.
 FoFCou: FMM=F IPFlag=           0 FMFlag=      100000 FMFlg1=           0
         NFxFlg=           0 DoJE=F BraDBF=F KetDBF=F FulRan=T
         wScrn=  0.000000 ICntrl=         0 IOpCl=  1 I1Cent=           0 NGrid=           0
         NMat0=    1 NMatS0=      1 NMatT0=    0 NMatD0=    1 NMtDS0=    0 NMtDT0=    0
 Petite list used in FoFCou.
    40 initial guesses have been made.
 Convergence on wavefunction:    0.001000000000000
 Davidson Disk Diagonalization:  ConvIn= 1.00D-03 SkipCon=T Conv= 1.00D-03.
 Max sub-space:   576 roots to seek:    48 dimension of matrix:           80
 *** WARNING: Number of orthogonal guesses is           40
 Iteration     1 Dimension    40 NMult     0 NNew     40
 New state      7 was old state      9
 New state      9 was old state      7
 New state     10 was old state     13
 New state     11 was old state     10
 New state     12 was old state     14
 Excitation Energies [eV] at current iteration:
 Root      1 :     6.645191478477930
 Root      2 :     7.820594201788357
 Root      3 :     8.511519864426859
 Root      4 :     9.081175905577167
 Root      5 :    11.074920294251200
 Root      6 :    12.122466306733970
 Root      7 :    25.804311069787860
 Root      8 :    28.328279195327960
 Root      9 :    28.388640356036540
 Root     10 :    28.905327031131370
 Root     11 :    28.968577832128530
 Root     12 :    29.864642630949790
 Root     13 :    30.032643406830120
 Root     14 :    30.754902876896250
 Root     15 :    31.361311103581710
 Root     16 :    32.590809740913340
 Root     17 :    33.090754541394490
 Root     18 :    33.716966640137390
 Root     19 :    34.421413587609980
 Root     20 :    35.546551393955200
 Root     21 :    36.561452834146090
 Root     22 :    37.767407854247620
 Root     23 :    39.735131961966450
 Root     24 :    42.891584466472870
 Root     25 :    45.820969499748540
 Root     26 :    48.414032824107420
 Root     27 :    49.933940548510120
 Root     28 :    50.974178272020660
 Root     29 :    51.164409314388070
 Root     30 :    54.515970986935100
 Root     31 :    57.153871480166670
 Root     32 :    65.264100655684090
 Root     33 :   547.369371818265800
 Root     34 :   547.859708391276500
 Root     35 :   565.397957554447900
 Root     36 :   567.347049053527300
 Root     37 :   572.941796023468600
 Root     38 :   575.241277719857200
 Root     39 :   577.426730219704700
 Root     40 :   585.897454920842100
 Convergence achieved for final wavefunctions.
 ***********************************************************************
 Excited states from <AA,BB:AA,BB> singles matrix:
 ***********************************************************************
 
 1PDM for each excited state written to RWF  633
 Ground to excited state transition densities written to RWF  633
 Ground to excited state transition electric dipole moments (Au):
       state          X           Y           Z        Dip. S.      Osc.
         1         0.0000      0.0000      0.0000      0.0000      0.0000
         2         0.0000      0.0000      0.0000      0.0000      0.0000
         3         0.0000      0.0000      0.0000      0.0000      0.0000
         4         0.0000      0.0000      0.0000      0.0000      0.0000
         5         0.0000      0.0000      0.0000      0.0000      0.0000
         6         0.0000      0.0000      0.0000      0.0000      0.0000
         7         0.0000      0.0000      0.0000      0.0000      0.0000
         8         0.0000      0.0000      0.0000      0.0000      0.0000
         9         0.0000      0.0000      0.0000      0.0000      0.0000
        10         0.0000      0.0000      0.0000      0.0000      0.0000
        11         0.0000      0.0000      0.0000      0.0000      0.0000
        12         0.0000      0.0000      0.0000      0.0000      0.0000
 Ground to excited state transition velocity dipole moments (Au):
       state          X           Y           Z        Dip. S.      Osc.
         1         0.0000      0.0000      0.0000      0.0000      0.0000
         2         0.0000      0.0000      0.0000      0.0000      0.0000
         3         0.0000      0.0000      0.0000      0.0000      0.0000
         4         0.0000      0.0000      0.0000      0.0000      0.0000
         5         0.0000      0.0000      0.0000      0.0000      0.0000
         6         0.0000      0.0000      0.0000      0.0000      0.0000
         7         0.0000      0.0000      0.0000      0.0000      0.0000
         8         0.0000      0.0000      0.0000      0.0000      0.0000
         9         0.0000      0.0000      0.0000      0.0000      0.0000
        10         0.0000      0.0000      0.0000      0.0000      0.0000
        11         0.0000      0.0000      0.0000      0.0000      0.0000
        12         0.0000      0.0000      0.0000      0.0000      0.0000
 Ground to excited state transition magnetic dipole moments (Au):
       state          X           Y           Z
         1         0.0000      0.0000      0.0000
         2         0.0000      0.0000      0.0000
         3         0.0000      0.0000      0.0000
         4         0.0000      0.0000      0.0000
         5         0.0000      0.0000      0.0000
         6         0.0000      0.0000      0.0000
         7         0.0000      0.0000      0.0000
         8         0.0000      0.0000      0.0000
         9         0.0000      0.0000      0.0000
        10         0.0000      0.0000      0.0000
        11         0.0000      0.0000      0.0000
        12         0.0000      0.0000      0.0000
 Ground to excited state transition velocity quadrupole moments (Au):
       state          XX          YY          ZZ          XY          XZ          YZ
         1         0.0000      0.0000      0.0000      0.0000      0.0000      0.0000
         2         0.0000      0.0000      0.0000      0.0000      0.0000      0.0000
         3         0.0000      0.0000      0.0000      0.0000      0.0000      0.0000
         4         0.0000      0.0000      0.0000      0.0000      0.0000      0.0000
         5         0.0000      0.0000      0.0000      0.0000      0.0000      0.0000
         6         0.0000      0.0000      0.0000      0.0000      0.0000      0.0000
         7         0.0000      0.0000      0.0000      0.0000      0.0000      0.0000
         8         0.0000      0.0000      0.0000      0.0000      0.0000      0.0000
         9         0.0000      0.0000      0.0000      0.0000      0.0000      0.0000
        10         0.0000      0.0000      0.0000      0.0000      0.0000      0.0000
        11         0.0000      0.0000      0.0000      0.0000      0.0000      0.0000
        12         0.0000      0.0000      0.0000      0.0000      0.0000      0.0000
 <0|del|b> * <b|rxdel|0> + <0|del|b> * <b|delr+rdel|0>
 Rotatory Strengths (R) in cgs (10**-40 erg-esu-cm/Gauss)
       state          XX          YY          ZZ    R(velocity)    E-M Angle
         1         0.0000      0.0000      0.0000      0.0000       90.00
         2         0.0000      0.0000      0.0000      0.0000       90.00
         3         0.0000      0.0000      0.0000      0.0000       90.00
         4         0.0000      0.0000      0.0000      0.0000       90.00
         5         0.0000      0.0000      0.0000      0.0000       90.00
         6         0.0000      0.0000      0.0000      0.0000       90.00
         7         0.0000      0.0000      0.0000      0.0000       90.00
         8         0.0000      0.0000      0.0000      0.0000       90.00
         9         0.0000      0.0000      0.0000      0.0000       90.00
        10         0.0000      0.0000      0.0000      0.0000       90.00
        11         0.0000      0.0000      0.0000      0.0000       90.00
        12         0.0000      0.0000      0.0000      0.0000       90.00
 1/2[<0|r|b>*<b|rxdel|0> + (<0|rxdel|b>*<b|r|0>)*]
 Rotatory Strengths (R) in cgs (10**-40 erg-esu-cm/Gauss)
       state          XX          YY          ZZ     R(length)
         1         0.0000      0.0000      0.0000      0.0000
         2         0.0000      0.0000      0.0000      0.0000
         3         0.0000      0.0000      0.0000      0.0000
         4         0.0000      0.0000      0.0000      0.0000
         5         0.0000      0.0000      0.0000      0.0000
         6         0.0000      0.0000      0.0000      0.0000
         7         0.0000      0.0000      0.0000      0.0000
         8         0.0000      0.0000      0.0000      0.0000
         9         0.0000      0.0000      0.0000      0.0000
        10         0.0000      0.0000      0.0000      0.0000
        11         0.0000      0.0000      0.0000      0.0000
        12         0.0000      0.0000      0.0000      0.0000
  1/2[<0|del|b>*<b|r|0> + (<0|r|b>*<b|del|0>)*] (Au)
       state          X           Y           Z        Dip. S.   Osc.(frdel)
         1         0.0000      0.0000      0.0000      0.0000      0.0000
         2         0.0000      0.0000      0.0000      0.0000      0.0000
         3         0.0000      0.0000      0.0000      0.0000      0.0000
         4         0.0000      0.0000      0.0000      0.0000      0.0000
         5         0.0000      0.0000      0.0000      0.0000      0.0000
         6         0.0000      0.0000      0.0000      0.0000      0.0000
         7         0.0000      0.0000      0.0000      0.0000      0.0000
         8         0.0000      0.0000      0.0000      0.0000      0.0000
         9         0.0000      0.0000      0.0000      0.0000      0.0000
        10         0.0000      0.0000      0.0000      0.0000      0.0000
        11         0.0000      0.0000      0.0000      0.0000      0.0000
        12         0.0000      0.0000      0.0000      0.0000      0.0000

 Excitation energies and oscillator strengths:
 
 Excited State   1:      Triplet-B1     6.6452 eV  186.58 nm  f=0.0000  <S**2>=2.000
       5 ->  6         0.69585
       5 ->  9        -0.10678
 This state for optimization and/or second-order correction.
 Total Energy, E(CIS) =  -75.7083227478    
 Copying the excited state density for this state as the 1-particle RhoCI density.
 
 Excited State   2:      Triplet-A1     7.8206 eV  158.54 nm  f=0.0000  <S**2>=2.000
       3 ->  7         0.18191
       4 ->  6         0.66917
       4 ->  9        -0.10414
 
 Excited State   3:      Triplet-A2     8.5115 eV  145.67 nm  f=0.0000  <S**2>=2.000
       5 ->  7         0.69279
       5 ->  8         0.10156
 
 Excited State   4:      Triplet-B2     9.0812 eV  136.53 nm  f=0.0000  <S**2>=2.000
       3 ->  6         0.44476
       4 ->  7         0.53030
 
 Excited State   5:      Triplet-B2    11.0749 eV  111.95 nm  f=0.0000  <S**2>=2.000
       3 ->  6         0.53248
       4 ->  7        -0.44827
 
 Excited State   6:      Triplet-A1    12.1225 eV  102.28 nm  f=0.0000  <S**2>=2.000
       3 ->  7         0.66247
       3 ->  8         0.10636
       4 ->  6        -0.19501
 
 Excited State   7:      Triplet-A1    25.8043 eV   48.05 nm  f=0.0000  <S**2>=2.000
       2 ->  6        -0.40431
       4 ->  9        -0.14803
       4 -> 11         0.16413
       5 -> 10         0.50501
 
 Excited State   8:      Triplet-A1    28.3283 eV   43.77 nm  f=0.0000  <S**2>=2.000
       2 ->  6         0.44693
       2 ->  9        -0.11329
       3 ->  8        -0.15676
       4 ->  9         0.19377
       5 -> 10         0.46114
 
 Excited State   9:      Triplet-B1    28.3886 eV   43.67 nm  f=0.0000  <S**2>=2.000
       4 -> 10        -0.15586
       5 ->  6         0.10492
       5 ->  9         0.56441
       5 -> 11        -0.38165
 
 Excited State  10:      Triplet-B2    28.9053 eV   42.89 nm  f=0.0000  <S**2>=2.000
       2 ->  7         0.44664
       2 ->  8         0.14147
       3 ->  6         0.11431
       3 ->  9         0.37892
       4 ->  8        -0.33888
 
 Excited State  11:      Triplet-A1    28.9686 eV   42.80 nm  f=0.0000  <S**2>=2.000
       2 ->  6        -0.31793
       3 ->  8        -0.24521
       4 ->  9         0.49970
       4 -> 11        -0.27822
 
 Excited State  12:      Triplet-B2    29.8646 eV   41.52 nm  f=0.0000  <S**2>=2.000
       2 ->  7         0.49719
       3 ->  9        -0.20956
       4 ->  8         0.43463
 SavETr:  write IOETrn=   770 NScale= 10 NData=  16 NLR=1 NState=   40 LETran=     730.
 Leave Link  914 at Wed Oct 28 10:08:51 2015, MaxMem=    33554432 cpu:               0.2 elap:               0.1
 (Enter /home/gauss/gdvi03p/gdv/l601.exe)
 Copying SCF densities to generalized density rwf, IOpCl= 0 IROHF=0.

 **********************************************************************

            Population analysis using the SCF density.

 **********************************************************************

 Orbital symmetries:
       Occupied  (A1) (A1) (B2) (A1) (B1)
       Virtual   (A1) (B2) (B2) (A1) (B1) (A1) (B2) (A1)
 The electronic state is 1-A1.
 Alpha  occ. eigenvalues --  -20.58853  -1.29384  -0.63750  -0.54023  -0.49664
 Alpha virt. eigenvalues --    0.16656   0.25488   1.00524   1.02844   1.16340
 Alpha virt. eigenvalues --    1.23352   1.36346   1.67820
          Condensed to atoms (all electrons):
               1          2          3
     1  O    8.317399   0.230190   0.230190
     2  H    0.230190   0.403594  -0.022674
     3  H    0.230190  -0.022674   0.403594
 Mulliken charges:
               1
     1  O   -0.777779
     2  H    0.388890
     3  H    0.388890
 Sum of Mulliken charges =   0.00000
 Mulliken charges with hydrogens summed into heavy atoms:
               1
     1  O    0.000000
 Electronic spatial extent (au):  <R**2>=             21.1178
 Charge=              0.0000 electrons
 Dipole moment (field-independent basis, Debye):
    X=              0.0000    Y=              0.0000    Z=             -2.6632  Tot=              2.6632
 Quadrupole moment (field-independent basis, Debye-Ang):
   XX=             -7.5126   YY=             -3.9886   ZZ=             -6.1603
   XY=              0.0000   XZ=              0.0000   YZ=              0.0000
 Traceless Quadrupole moment (field-independent basis, Debye-Ang):
   XX=             -1.6254   YY=              1.8986   ZZ=             -0.2732
   XY=              0.0000   XZ=              0.0000   YZ=              0.0000
 Octapole moment (field-independent basis, Debye-Ang**2):
  XXX=              0.0000  YYY=              0.0000  ZZZ=             -1.4478  XYY=              0.0000
  XXY=              0.0000  XXZ=             -0.3221  XZZ=              0.0000  YZZ=              0.0000
  YYZ=             -1.7501  XYZ=              0.0000
 Hexadecapole moment (field-independent basis, Debye-Ang**3):
 XXXX=             -5.5334 YYYY=             -6.9121 ZZZZ=             -7.1931 XXXY=              0.0000
 XXXZ=              0.0000 YYYX=              0.0000 YYYZ=              0.0000 ZZZX=              0.0000
 ZZZY=              0.0000 XXYY=             -2.4811 XXZZ=             -2.2022 YYZZ=             -1.8139
 XXYZ=              0.0000 YYXZ=              0.0000 ZZXY=              0.0000
 N-N= 8.002366485626D+00 E-N=-1.963296409725D+02  KE= 7.553331820733D+01
 Symmetry A1   KE= 6.772522626821D+01
 Symmetry A2   KE= 0.000000000000D+00
 Symmetry B1   KE= 4.616443527689D+00
 Symmetry B2   KE= 3.191648411434D+00
 Leave Link  601 at Wed Oct 28 10:08:51 2015, MaxMem=    33554432 cpu:               0.0 elap:               0.0
 (Enter /home/gauss/gdvi03p/gdv/l9999.exe)
 Unable to Open any file for archive entry.
 1\1\GINC-MEDUSA\SP\RCIS-Full\6-31G\H2O1\PLESTRAN\28-Oct-2015\0\\#p hf/
 6-31g geom=check guess=read cis(full,nstates=12,triplet)\\Water triple
 ts\\0,1\O,0,0.,-0.0757918436,0.\H,0,0.866811829,0.6014357793,0.\H,0,-0
 .866811829,0.6014357793,0.\\Version=ES64L-GDVRevI.03+\State=1-A1\HF=-7
 5.952529\MP2=-76.0946489\EFC=0.\RMSD=0.000e+00\PG=C02V [C2(O1),SGV(H2)
 ]\\@
 The archive entry for this job was punched.


 WE'RE IN THE POSITION OF A VISITOR FROM ANOTHER
 DIMENSION WHO COMES TO EARTH AND SEES A CHESS MATCH.
 ASSUMING HE KNOWS IT'S A GAME, HE'S GOT TWO PROBLEMS:
 FIRST, FIGURE OUT THE RULES, AND SECOND, FIGURE OUT HOW TO WIN.
 NINETY PERCENT OF SCIENCE (INCLUDING VIRTUALLY ALL OF CHEMISRY)
 IS IN THAT SECOND CATEGORY.  THEY'RE TRYING TO APPLY
 THE LAWS THAT ARE ALREADY KNOWN.

                     -- SHELDON GLASHOW, 1979
 Job cpu time:       0 days  0 hours  0 minutes  1.5 seconds.
 Elapsed time:       0 days  0 hours  0 minutes  0.6 seconds.
 File lengths (MBytes):  RWF=     18 Int=      0 D2E=      0 Chk=      1 Scr=      1
 Normal termination of Gaussian DV at Wed Oct 28 10:08:51 2015.
