 Entering Gaussian System, Link 0=gdv
 Input=h2o_sto3g_field.com
 Output=h2o_sto3g_field.log
 Initial command:
 /home/gauss/gdvi01p/gdv/l1.exe "/home/GauScr/Gau-32745.inp" -scrdir="/home/GauScr/"
 Entering Link 1 = /home/gauss/gdvi01p/gdv/l1.exe PID=     32746.
  
 Copyright (c) 1988,1990,1992,1993,1995,1998,2003,2009,2014,
            Gaussian, Inc.  All Rights Reserved.
  
 This is the private, development version of
 the Gaussian(R) DV system of programs. It is based on
 the Gaussian(R) 09 system (copyright 2009, Gaussian, Inc.),
 the Gaussian(R) 03 system (copyright 2003, Gaussian, Inc.),
 the Gaussian(R) 98 system (copyright 1998, Gaussian, Inc.),
 the Gaussian(R) 94 system (copyright 1995, Gaussian, Inc.),
 the Gaussian 92(TM) system (copyright 1992, Gaussian, Inc.),
 the Gaussian 90(TM) system (copyright 1990, Gaussian, Inc.),
 the Gaussian 88(TM) system (copyright 1988, Gaussian, Inc.),
 the Gaussian 86(TM) system (copyright 1986, Carnegie Mellon
 University), and the Gaussian 82(TM) system (copyright 1983,
 Carnegie Mellon University). Gaussian is a federally registered
 trademark of Gaussian, Inc.
  
 This software contains proprietary and confidential information,
 including trade secrets, belonging to Gaussian, Inc.
  
 This software is provided under written license and may be
 used, copied, transmitted, or stored only in accord with that
 written license.
  
 The following legend is applicable only to US Government
 contracts under FAR:
  
                    RESTRICTED RIGHTS LEGEND
  
 Use, reproduction and disclosure by the US Government is
 subject to restrictions as set forth in subparagraphs (a)
 and (c) of the Commercial Computer Software - Restricted
 Rights clause in FAR 52.227-19.
  
 Gaussian, Inc.
 340 Quinnipiac St., Bldg. 40, Wallingford CT 06492
  
  
 ---------------------------------------------------------------
 Warning -- This program may not be used in any manner that
 competes with the business of Gaussian, Inc. or will provide
 assistance to any competitor of Gaussian, Inc.  The licensee
 of this program is prohibited from giving any competitor of
 Gaussian, Inc. access to this program.  By using this program,
 the user acknowledges that Gaussian, Inc. is engaged in the
 business of creating and licensing software in the field of
 computational chemistry and represents and warrants to the
 licensee that it is not a competitor of Gaussian, Inc. and that
 it will not use this program in any manner prohibited above.
 ---------------------------------------------------------------
  

 Cite this work as:
 Gaussian Development Version, Revision I.01+,
 M. J. Frisch, G. W. Trucks, H. B. Schlegel, G. E. Scuseria, 
 M. A. Robb, J. R. Cheeseman, G. Scalmani, V. Barone, B. Mennucci, 
 G. A. Petersson, H. Nakatsuji, M. Caricato, X. Li, H. P. Hratchian, 
 A. F. Izmaylov, J. Bloino, B. G. Janesko, F. Lipparini, G. Zheng, 
 J. L. Sonnenberg, W. Liang, M. Hada, M. Ehara, K. Toyota, R. Fukuda, 
 J. Hasegawa, M. Ishida, T. Nakajima, Y. Honda, O. Kitao, H. Nakai, 
 T. Vreven, J. A. Montgomery, Jr., J. E. Peralta, F. Ogliaro, 
 M. Bearpark, J. J. Heyd, E. Brothers, K. N. Kudin, V. N. Staroverov, 
 T. Keith, R. Kobayashi, J. Normand, K. Raghavachari, A. Rendell, 
 J. C. Burant, S. S. Iyengar, J. Tomasi, M. Cossi, N. Rega, 
 J. M. Millam, M. Klene, J. E. Knox, J. B. Cross, V. Bakken, 
 C. Adamo, J. Jaramillo, R. Gomperts, R. E. Stratmann, O. Yazyev, 
 A. J. Austin, R. Cammi, C. Pomelli, J. W. Ochterski, R. L. Martin, 
 K. Morokuma, V. G. Zakrzewski, G. A. Voth, P. Salvador, 
 J. J. Dannenberg, S. Dapprich, P. V. Parandekar, N. J. Mayhall, 
 A. D. Daniels, O. Farkas, J. B. Foresman, J. V. Ortiz, 
 J. Cioslowski, and D. J. Fox, Gaussian, Inc., Wallingford CT, 2010.
 
 *******************************************
 Gaussian DV:  ES64L-GDVRevI.01+ 11-Sep-2014
                 29-Sep-2015 
 *******************************************
 ------------------------------------------------
 #p hf/sto-3g gfinput pop=full nosymm Field=X-100
 ------------------------------------------------
 1/38=1,172=1/1;
 2/12=2,15=1,17=6,18=5,40=1/2;
 3/6=3,11=9,14=1,15=-100,24=10,25=1,30=1/1,2,3;
 4//1;
 5/5=2,38=5/2;
 6/7=3,28=1/1;
 99/5=1,9=1/99;
 Leave Link    1 at Tue Sep 29 11:37:05 2015, MaxMem=           0 cpu:               0.0 elap:               0.0
 (Enter /home/gauss/gdvi01p/gdv/l101.exe)
 ------------
 Water STO-3G
 ------------
 Symbolic Z-matrix:
 Charge =  0 Multiplicity = 1
 O                     0.       -0.07579   0. 
 H                     0.86681   0.60144   0. 
 H                    -0.86681   0.60144   0. 
 
 ITRead=  0  0  0
 MicOpt= -1 -1 -1
 NAtoms=      3 NQM=        3 NQMF=       0 NMMI=      0 NMMIF=      0
                NMic=       0 NMicF=      0.
                    Isotopes and Nuclear Properties:
 (Nuclear quadrupole moments (NQMom) in fm**2, nuclear magnetic moments (NMagM)
  in nuclear magnetons)

  Atom         1           2           3
 IAtWgt=          16           1           1
 AtmWgt=  15.9949146   1.0078250   1.0078250
 NucSpn=           0           1           1
 AtZEff=   0.0000000   0.0000000   0.0000000
 NQMom=    0.0000000   0.0000000   0.0000000
 NMagM=    0.0000000   2.7928460   2.7928460
 AtZNuc=   8.0000000   1.0000000   1.0000000
 Leave Link  101 at Tue Sep 29 11:37:05 2015, MaxMem=    33554432 cpu:               0.1 elap:               0.1
 (Enter /home/gauss/gdvi01p/gdv/l202.exe)
                          Input orientation:                          
 ---------------------------------------------------------------------
 Center     Atomic      Atomic             Coordinates (Angstroms)
 Number     Number       Type             X           Y           Z
 ---------------------------------------------------------------------
      1          8           0        0.000000   -0.075792    0.000000
      2          1           0        0.866812    0.601436    0.000000
      3          1           0       -0.866812    0.601436    0.000000
 ---------------------------------------------------------------------
                    Distance matrix (angstroms):
                    1          2          3
     1  O    0.000000
     2  H    1.100000   0.000000
     3  H    1.100000   1.733624   0.000000
 Symmetry turned off by external request.
 Stoichiometry    H2O
 Framework group  C2V[C2(O),SGV(H2)]
 Deg. of freedom     2
 Full point group                 C2V     NOp   4
 Rotational constants (GHZ):    615.5709784    333.6970768    216.3922350
 Leave Link  202 at Tue Sep 29 11:37:06 2015, MaxMem=    33554432 cpu:               0.0 elap:               0.0
 (Enter /home/gauss/gdvi01p/gdv/l301.exe)
 Standard basis: STO-3G (5D, 7F)
 Ernie: Thresh=  0.10000D-02 Tol=  0.10000D-05 Strict=F.
 The following finite field(s) will be applied:
 An electric field of             -0.0100  0.0000  0.0000
 AO basis set in the form of general basis input (Overlap normalization):
      1 0
 S   3 1.00       0.000000000000
      0.1307093214D+03  0.1543289673D+00
      0.2380886605D+02  0.5353281423D+00
      0.6443608313D+01  0.4446345422D+00
 SP   3 1.00       0.000000000000
      0.5033151319D+01 -0.9996722919D-01  0.1559162750D+00
      0.1169596125D+01  0.3995128261D+00  0.6076837186D+00
      0.3803889600D+00  0.7001154689D+00  0.3919573931D+00
 ****
      2 0
 S   3 1.00       0.000000000000
      0.3425250914D+01  0.1543289673D+00
      0.6239137298D+00  0.5353281423D+00
      0.1688554040D+00  0.4446345422D+00
 ****
      3 0
 S   3 1.00       0.000000000000
      0.3425250914D+01  0.1543289673D+00
      0.6239137298D+00  0.5353281423D+00
      0.1688554040D+00  0.4446345422D+00
 ****

     7 basis functions,    21 primitive gaussians,     7 cartesian basis functions
     5 alpha electrons        5 beta electrons
       nuclear repulsion energy         8.0023664856 Hartrees.
 IExCor=    0 DFT=F Ex=HF Corr=None ExCW=0 ScaHFX=  1.000000
 ScaDFX=  1.000000  1.000000  1.000000  1.000000 ScalE2=  1.000000  1.000000
 IRadAn=      0 IRanWt=     -1 IRanGd=            0 ICorTp=0 IEmpDi=  4
 NAtoms=    3 NActive=    3 NUniq=    3 SFac= 1.00D+00 NAtFMM=   60 NAOKFM=F Big=F
 Integral buffers will be    131072 words long.
 Raffenetti 1 integral format.
 Two-electron integral symmetry is turned off.
 Leave Link  301 at Tue Sep 29 11:37:06 2015, MaxMem=    33554432 cpu:               0.0 elap:               0.0
 (Enter /home/gauss/gdvi01p/gdv/l302.exe)
 NPDir=0 NMtPBC=     1 NCelOv=     1 NCel=       1 NClECP=     1 NCelD=      1
         NCelK=      1 NCelE2=     1 NClLst=     1 CellRange=     0.0.
 One-electron integrals computed using PRISM.
 One-electron integral symmetry used in STVInt
 NBasis=     7 RedAO= T EigKep=  4.34D-01  NBF=     7
 NBsUse=     7 1.00D-06 EigRej= -1.00D+00 NBFU=     7
 Leave Link  302 at Tue Sep 29 11:37:06 2015, MaxMem=    33554432 cpu:               0.1 elap:               0.1
 (Enter /home/gauss/gdvi01p/gdv/l303.exe)
 DipDrv:  MaxL=1.
 The nuclear repulsion energy is now         8.0023664856 hartrees.
 Leave Link  303 at Tue Sep 29 11:37:06 2015, MaxMem=    33554432 cpu:               0.0 elap:               0.0
 (Enter /home/gauss/gdvi01p/gdv/l401.exe)
 ExpMin= 1.69D-01 ExpMax= 1.31D+02 ExpMxC= 1.31D+02 IAcc=1 IRadAn=         1 AccDes= 0.00D+00
 Harris functional with IExCor=  205 and IRadAn=       1 diagonalized for initial guess.
 HarFok:  IExCor=  205 AccDes= 0.00D+00 IRadAn=         1 IDoV= 1 UseB2=F ITyADJ=14
 ICtDFT=  3500011 ScaDFX=  1.000000  1.000000  1.000000  1.000000
 FoFCou: FMM=F IPFlag=           0 FMFlag=      100000 FMFlg1=           0
         NFxFlg=           0 DoJE=T BraDBF=F KetDBF=T FulRan=T
         wScrn=  0.000000 ICntrl=       500 IOpCl=  0 I1Cent=   200000004 NGrid=           0
         NMat0=    1 NMatS0=      1 NMatT0=    0 NMatD0=    1 NMtDS0=    0 NMtDT0=    0
 Symmetry not used in FoFCou.
 Harris En= -75.0199506737573    
 JPrj=0 DoOrth=F DoCkMO=F.
 Leave Link  401 at Tue Sep 29 11:37:06 2015, MaxMem=    33554432 cpu:               0.1 elap:               0.1
 (Enter /home/gauss/gdvi01p/gdv/l502.exe)
 Keep R1 ints in memory in canonical form, NReq=802769.
 FoFCou: FMM=F IPFlag=           0 FMFlag=           0 FMFlg1=           0
         NFxFlg=           0 DoJE=F BraDBF=F KetDBF=F FulRan=T
         wScrn=  0.000000 ICntrl=       600 IOpCl=  0 I1Cent=           0 NGrid=           0
         NMat0=    1 NMatS0=     28 NMatT0=    0 NMatD0=    1 NMtDS0=    0 NMtDT0=    0
 Symmetry not used in FoFCou.
 Two-electron integral symmetry not used.
 Closed shell SCF:
 Using DIIS extrapolation, IDIIS=  1040.
 NGot=    33554432 LenX=    33552674 LenY=    33551792
 Requested convergence on RMS density matrix=1.00D-08 within 128 cycles.
 Requested convergence on MAX density matrix=1.00D-06.
 Requested convergence on             energy=1.00D-06.
 No special actions if energy rises.

 Cycle   1  Pass 1  IDiag  1:
 E= -74.8830661138531    
 DIIS: error= 7.54D-02 at cycle   1 NSaved=   1.
 NSaved= 1 IEnMin= 1 EnMin= -74.8830661138531     IErMin= 1 ErrMin= 7.54D-02
 ErrMax= 7.54D-02  0.00D+00 EMaxC= 1.00D-01 BMatC= 3.89D-02 BMatP= 3.89D-02
 IDIUse=3 WtCom= 2.46D-01 WtEn= 7.54D-01
 Coeff-Com:  0.100D+01
 Coeff-En:   0.100D+01
 Coeff:      0.100D+01
 Gap=     0.745 Goal=   None    Shift=    0.000
 GapD=    0.745 DampG=2.000 DampE=0.500 DampFc=1.0000 IDamp=-1.
 RMSDP=4.52D-02 MaxDP=1.56D-01              OVMax= 0.00D+00

 Cycle   2  Pass 1  IDiag  1:
 E= -74.9407228931909     Delta-E=       -0.057656779338 Rises=F Damp=F
 DIIS: error= 1.14D-02 at cycle   2 NSaved=   2.
 NSaved= 2 IEnMin= 2 EnMin= -74.9407228931909     IErMin= 2 ErrMin= 1.14D-02
 ErrMax= 1.14D-02  0.00D+00 EMaxC= 1.00D-01 BMatC= 1.31D-03 BMatP= 3.89D-02
 IDIUse=3 WtCom= 8.86D-01 WtEn= 1.14D-01
 Coeff-Com:  0.142D+00 0.858D+00
 Coeff-En:   0.000D+00 0.100D+01
 Coeff:      0.126D+00 0.874D+00
 Gap=     0.866 Goal=   None    Shift=    0.000
 RMSDP=6.24D-03 MaxDP=2.21D-02 DE=-5.77D-02 OVMax= 0.00D+00

 Cycle   3  Pass 1  IDiag  1:
 E= -74.9424662406848     Delta-E=       -0.001743347494 Rises=F Damp=F
 DIIS: error= 8.64D-04 at cycle   3 NSaved=   3.
 NSaved= 3 IEnMin= 3 EnMin= -74.9424662406848     IErMin= 3 ErrMin= 8.64D-04
 ErrMax= 8.64D-04  0.00D+00 EMaxC= 1.00D-01 BMatC= 5.79D-06 BMatP= 1.31D-03
 IDIUse=3 WtCom= 9.91D-01 WtEn= 8.64D-03
 Coeff-Com: -0.188D-01-0.847D-01 0.110D+01
 Coeff-En:   0.000D+00 0.000D+00 0.100D+01
 Coeff:     -0.187D-01-0.839D-01 0.110D+01
 Gap=     0.865 Goal=   None    Shift=    0.000
 RMSDP=6.01D-04 MaxDP=2.04D-03 DE=-1.74D-03 OVMax= 0.00D+00

 Cycle   4  Pass 1  IDiag  1:
 E= -74.9424763972871     Delta-E=       -0.000010156602 Rises=F Damp=F
 DIIS: error= 1.38D-04 at cycle   4 NSaved=   4.
 NSaved= 4 IEnMin= 4 EnMin= -74.9424763972871     IErMin= 4 ErrMin= 1.38D-04
 ErrMax= 1.38D-04  0.00D+00 EMaxC= 1.00D-01 BMatC= 1.58D-07 BMatP= 5.79D-06
 IDIUse=3 WtCom= 9.99D-01 WtEn= 1.38D-03
 Coeff-Com:  0.208D-02 0.290D-02-0.233D+00 0.123D+01
 Coeff-En:   0.000D+00 0.000D+00 0.000D+00 0.100D+01
 Coeff:      0.208D-02 0.289D-02-0.232D+00 0.123D+01
 Gap=     0.865 Goal=   None    Shift=    0.000
 RMSDP=1.09D-04 MaxDP=4.36D-04 DE=-1.02D-05 OVMax= 0.00D+00

 Cycle   5  Pass 1  IDiag  1:
 E= -74.9424766684799     Delta-E=       -0.000000271193 Rises=F Damp=F
 DIIS: error= 9.73D-06 at cycle   5 NSaved=   5.
 NSaved= 5 IEnMin= 5 EnMin= -74.9424766684799     IErMin= 5 ErrMin= 9.73D-06
 ErrMax= 9.73D-06  0.00D+00 EMaxC= 1.00D-01 BMatC= 1.15D-09 BMatP= 1.58D-07
 IDIUse=1 WtCom= 1.00D+00 WtEn= 0.00D+00
 Coeff-Com: -0.151D-02-0.202D-02 0.174D+00-0.934D+00 0.176D+01
 Coeff:     -0.151D-02-0.202D-02 0.174D+00-0.934D+00 0.176D+01
 Gap=     0.865 Goal=   None    Shift=    0.000
 RMSDP=1.69D-05 MaxDP=5.18D-05 DE=-2.71D-07 OVMax= 0.00D+00

 Cycle   6  Pass 1  IDiag  1:
 E= -74.9424766726923     Delta-E=       -0.000000004212 Rises=F Damp=F
 DIIS: error= 9.98D-07 at cycle   6 NSaved=   6.
 NSaved= 6 IEnMin= 6 EnMin= -74.9424766726923     IErMin= 6 ErrMin= 9.98D-07
 ErrMax= 9.98D-07  0.00D+00 EMaxC= 1.00D-01 BMatC= 1.13D-11 BMatP= 1.15D-09
 IDIUse=1 WtCom= 1.00D+00 WtEn= 0.00D+00
 Coeff-Com:  0.220D-03 0.290D-03-0.247D-01 0.133D+00-0.270D+00 0.116D+01
 Coeff:      0.220D-03 0.290D-03-0.247D-01 0.133D+00-0.270D+00 0.116D+01
 Gap=     0.865 Goal=   None    Shift=    0.000
 RMSDP=1.04D-06 MaxDP=2.73D-06 DE=-4.21D-09 OVMax= 0.00D+00

 Cycle   7  Pass 1  IDiag  1:
 E= -74.9424766727239     Delta-E=       -0.000000000032 Rises=F Damp=F
 DIIS: error= 2.16D-07 at cycle   7 NSaved=   7.
 NSaved= 7 IEnMin= 7 EnMin= -74.9424766727239     IErMin= 7 ErrMin= 2.16D-07
 ErrMax= 2.16D-07  0.00D+00 EMaxC= 1.00D-01 BMatC= 9.13D-13 BMatP= 1.13D-11
 IDIUse=1 WtCom= 1.00D+00 WtEn= 0.00D+00
 Coeff-Com: -0.111D-05-0.255D-05-0.148D-03 0.839D-03-0.295D-02-0.381D+00
 Coeff-Com:  0.138D+01
 Coeff:     -0.111D-05-0.255D-05-0.148D-03 0.839D-03-0.295D-02-0.381D+00
 Coeff:      0.138D+01
 Gap=     0.865 Goal=   None    Shift=    0.000
 RMSDP=4.57D-07 MaxDP=1.36D-06 DE=-3.16D-11 OVMax= 0.00D+00

 Cycle   8  Pass 1  IDiag  1:
 E= -74.9424766727270     Delta-E=       -0.000000000003 Rises=F Damp=F
 DIIS: error= 2.95D-08 at cycle   8 NSaved=   8.
 NSaved= 8 IEnMin= 8 EnMin= -74.9424766727270     IErMin= 8 ErrMin= 2.95D-08
 ErrMax= 2.95D-08  0.00D+00 EMaxC= 1.00D-01 BMatC= 1.11D-14 BMatP= 9.13D-13
 IDIUse=1 WtCom= 1.00D+00 WtEn= 0.00D+00
 Coeff-Com:  0.654D-06 0.137D-05 0.556D-04-0.320D-03 0.178D-02 0.173D+00
 Coeff-Com: -0.668D+00 0.149D+01
 Coeff:      0.654D-06 0.137D-05 0.556D-04-0.320D-03 0.178D-02 0.173D+00
 Coeff:     -0.668D+00 0.149D+01
 Gap=     0.865 Goal=   None    Shift=    0.000
 RMSDP=4.39D-08 MaxDP=1.11D-07 DE=-3.17D-12 OVMax= 0.00D+00

 Cycle   9  Pass 1  IDiag  1:
 E= -74.9424766727271     Delta-E=        0.000000000000 Rises=F Damp=F
 DIIS: error= 2.41D-09 at cycle   9 NSaved=   9.
 NSaved= 9 IEnMin= 9 EnMin= -74.9424766727271     IErMin= 9 ErrMin= 2.41D-09
 ErrMax= 2.41D-09  0.00D+00 EMaxC= 1.00D-01 BMatC= 3.39D-17 BMatP= 1.11D-14
 IDIUse=1 WtCom= 1.00D+00 WtEn= 0.00D+00
 Coeff-Com: -0.278D-07-0.154D-06-0.326D-04 0.180D-03-0.704D-03-0.470D-01
 Coeff-Com:  0.184D+00-0.429D+00 0.129D+01
 Coeff:     -0.278D-07-0.154D-06-0.326D-04 0.180D-03-0.704D-03-0.470D-01
 Coeff:      0.184D+00-0.429D+00 0.129D+01
 Gap=     0.865 Goal=   None    Shift=    0.000
 RMSDP=2.03D-09 MaxDP=5.39D-09 DE=-8.53D-14 OVMax= 0.00D+00

 SCF Done:  E(RHF) =  -74.9424766727     A.U. after    9 cycles
            NFock=  9  Conv=0.20D-08     -V/T= 2.0082
 KE= 7.433545754444D+01 PE=-1.945350639848D+02 EE= 3.725476328204D+01
 Leave Link  502 at Tue Sep 29 11:37:06 2015, MaxMem=    33554432 cpu:               0.1 elap:               0.1
 (Enter /home/gauss/gdvi01p/gdv/l601.exe)
 Copying SCF densities to generalized density rwf, IOpCl= 0 IROHF=0.

 **********************************************************************

            Population analysis using the SCF density.

 **********************************************************************

 Alpha  occ. eigenvalues --  -20.26296  -1.20976  -0.54804  -0.43663  -0.38765
 Alpha virt. eigenvalues --    0.47743   0.58846
     Molecular Orbital Coefficients:
                           1         2         3         4         5
                           O         O         O         O         O
     Eigenvalues --   -20.26296  -1.20976  -0.54804  -0.43663  -0.38765
   1 1   O  1S          0.99443  -0.23915  -0.00353   0.09366   0.00000
   2        2S          0.02410   0.88571   0.01713  -0.47948   0.00000
   3        2PX        -0.00002  -0.00291   0.60712   0.01404   0.00000
   4        2PY         0.00316   0.08586   0.00468   0.74739   0.00000
   5        2PZ         0.00000   0.00000   0.00000   0.00000   1.00000
   6 2   H  1S         -0.00459   0.14028   0.44307   0.32444   0.00000
   7 3   H  1S         -0.00460   0.14781  -0.46296   0.33444   0.00000
                           6         7
                           V         V
     Eigenvalues --     0.47743   0.58846
   1 1   O  1S          0.11144  -0.00622
   2        2S         -0.66843   0.03710
   3        2PX         0.05256   0.91772
   4        2PY        -0.73799   0.02801
   5        2PZ         0.00000   0.00000
   6 2   H  1S          0.67834  -0.77039
   7 3   H  1S          0.73915   0.69320
     Density Matrix:
                           1         2         3         4         5
   1 1   O  1S          2.10976
   2        2S         -0.46566   2.03054
   3        2PX        -0.00031   0.00218   0.73761
   4        2PY         0.10519  -0.56432   0.02616   1.13198
   5        2PZ         0.00000   0.00000   0.00000   0.00000   2.00000
   6 2   H  1S         -0.01857  -0.04768   0.54629   0.51317   0.00000
   7 3   H  1S         -0.01393  -0.07497  -0.55362   0.52093   0.00000
                           6         7
   6 2   H  1S          0.64255
   7 3   H  1S         -0.15172   0.69610
    Full Mulliken population analysis:
                           1         2         3         4         5
   1 1   O  1S          2.10976
   2        2S         -0.11022   2.03054
   3        2PX         0.00000   0.00000   0.73761
   4        2PY         0.00000   0.00000   0.00000   1.13198
   5        2PZ         0.00000   0.00000   0.00000   0.00000   2.00000
   6 2   H  1S         -0.00071  -0.01841   0.14664   0.10763   0.00000
   7 3   H  1S         -0.00054  -0.02895   0.14861   0.10925   0.00000
                           6         7
   6 2   H  1S          0.64255
   7 3   H  1S         -0.02758   0.69610
     Gross orbital populations:
                           1
   1 1   O  1S          1.99829
   2        2S          1.87296
   3        2PX         1.03287
   4        2PY         1.34886
   5        2PZ         2.00000
   6 2   H  1S          0.85012
   7 3   H  1S          0.89691
          Condensed to atoms (all electrons):
               1          2          3
     1  O    7.789445   0.235148   0.228383
     2  H    0.235148   0.642546  -0.027577
     3  H    0.228383  -0.027577   0.696101
 Mulliken charges:
               1
     1  O   -0.252976
     2  H    0.149882
     3  H    0.103094
 Sum of Mulliken charges =   0.00000
 Mulliken charges with hydrogens summed into heavy atoms:
               1
     1  O    0.000000
 Electronic spatial extent (au):  <R**2>=             19.8099
 Charge=              0.0000 electrons
 Dipole moment (field-independent basis, Debye):
    X=              0.2017    Y=              1.5328    Z=              0.0000  Tot=              1.5460
 Quadrupole moment (field-independent basis, Debye-Ang):
   XX=             -4.3179   YY=             -5.2059   ZZ=             -6.2077
   XY=              0.1118   XZ=              0.0000   YZ=              0.0000
 Traceless Quadrupole moment (field-independent basis, Debye-Ang):
   XX=              0.9259   YY=              0.0379   ZZ=             -0.9638
   XY=              0.1118   XZ=              0.0000   YZ=              0.0000
 Octapole moment (field-independent basis, Debye-Ang**2):
  XXX=              0.2766  YYY=             -0.9583  ZZZ=              0.0000  XYY=              0.1203
  XXY=              0.3905  XXZ=              0.0000  XZZ=              0.0370  YZZ=             -0.4478
  YYZ=              0.0000  XYZ=              0.0000
 Hexadecapole moment (field-independent basis, Debye-Ang**3):
 XXXX=             -7.9290 YYYY=             -5.8361 ZZZZ=             -3.3592 XXXY=              0.1659
 XXXZ=              0.0000 YYYX=              0.1137 YYYZ=              0.0000 ZZZX=              0.0000
 ZZZY=              0.0000 XXYY=             -1.9047 XXZZ=             -2.1049 YYZZ=             -1.5958
 XXYZ=              0.0000 YYXZ=              0.0000 ZZXY=              0.0219
 N-N= 8.002366485626D+00 E-N=-1.945350639800D+02  KE= 7.433545754444D+01
 Orbital energies and kinetic energies (alpha):
                                 1                 2
   1         O               -20.262962         28.673867
   2         O                -1.209764          2.456859
   3         O                -0.548043          1.408251
   4         O                -0.436626          2.100020
   5         O                -0.387645          2.528731
   6         V                 0.477431          2.513815
   7         V                 0.588456          2.558531
 Total kinetic energy from orbitals= 7.433545754444D+01
 No NMR shielding tensors so no spin-rotation constants.
 Leave Link  601 at Tue Sep 29 11:37:06 2015, MaxMem=    33554432 cpu:               0.1 elap:               0.1
 (Enter /home/gauss/gdvi01p/gdv/l9999.exe)
 Unable to Open any file for archive entry.
 1\1\GINC-MEDUSA\SP\RHF\STO-3G\H2O1\DBWY\29-Sep-2015\0\\#p hf/sto-3g gf
 input pop=full nosymm Field=X-100\\Water STO-3G\\0,1\O,0,0.,-0.0757918
 436,0.\H,0,0.866811829,0.6014357793,0.\H,0,-0.866811829,0.6014357793,0
 .\\Version=ES64L-GDVRevI.01+\HF=-74.9424767\RMSD=2.030e-09\Dipole=0.07
 93436,0.6030543,0.\Quadrupole=0.6883956,0.0281922,-0.7165878,0.0831165
 ,0.,0.\PG=C02V [C2(O1),SGV(H2)]\\@
 The archive entry for this job was punched.


 Time has a wonderful way of weeding out the trivial.
                                -- Richard Ben Sapir
 Job cpu time:       0 days  0 hours  0 minutes  0.7 seconds.
 Elapsed time:       0 days  0 hours  0 minutes  0.5 seconds.
 File lengths (MBytes):  RWF=      5 Int=      0 D2E=      0 Chk=      1 Scr=      1
 Normal termination of Gaussian DV at Tue Sep 29 11:37:06 2015.
