 Entering Gaussian System, Link 0=gdv
 Input=h2o_sto3g_CIS.com
 Output=h2o_sto3g_CIS.log
 Initial command:
 /home/gauss/gdvi01p/gdv/l1.exe "/home/GauScr/Gau-16977.inp" -scrdir="/home/GauScr/"
 Entering Link 1 = /home/gauss/gdvi01p/gdv/l1.exe PID=     16978.
  
 Copyright (c) 1988,1990,1992,1993,1995,1998,2003,2009,2014,
            Gaussian, Inc.  All Rights Reserved.
  
 This is the private, development version of
 the Gaussian(R) DV system of programs. It is based on
 the Gaussian(R) 09 system (copyright 2009, Gaussian, Inc.),
 the Gaussian(R) 03 system (copyright 2003, Gaussian, Inc.),
 the Gaussian(R) 98 system (copyright 1998, Gaussian, Inc.),
 the Gaussian(R) 94 system (copyright 1995, Gaussian, Inc.),
 the Gaussian 92(TM) system (copyright 1992, Gaussian, Inc.),
 the Gaussian 90(TM) system (copyright 1990, Gaussian, Inc.),
 the Gaussian 88(TM) system (copyright 1988, Gaussian, Inc.),
 the Gaussian 86(TM) system (copyright 1986, Carnegie Mellon
 University), and the Gaussian 82(TM) system (copyright 1983,
 Carnegie Mellon University). Gaussian is a federally registered
 trademark of Gaussian, Inc.
  
 This software contains proprietary and confidential information,
 including trade secrets, belonging to Gaussian, Inc.
  
 This software is provided under written license and may be
 used, copied, transmitted, or stored only in accord with that
 written license.
  
 The following legend is applicable only to US Government
 contracts under FAR:
  
                    RESTRICTED RIGHTS LEGEND
  
 Use, reproduction and disclosure by the US Government is
 subject to restrictions as set forth in subparagraphs (a)
 and (c) of the Commercial Computer Software - Restricted
 Rights clause in FAR 52.227-19.
  
 Gaussian, Inc.
 340 Quinnipiac St., Bldg. 40, Wallingford CT 06492
  
  
 ---------------------------------------------------------------
 Warning -- This program may not be used in any manner that
 competes with the business of Gaussian, Inc. or will provide
 assistance to any competitor of Gaussian, Inc.  The licensee
 of this program is prohibited from giving any competitor of
 Gaussian, Inc. access to this program.  By using this program,
 the user acknowledges that Gaussian, Inc. is engaged in the
 business of creating and licensing software in the field of
 computational chemistry and represents and warrants to the
 licensee that it is not a competitor of Gaussian, Inc. and that
 it will not use this program in any manner prohibited above.
 ---------------------------------------------------------------
  

 Cite this work as:
 Gaussian Development Version, Revision I.01+,
 M. J. Frisch, G. W. Trucks, H. B. Schlegel, G. E. Scuseria, 
 M. A. Robb, J. R. Cheeseman, G. Scalmani, V. Barone, B. Mennucci, 
 G. A. Petersson, H. Nakatsuji, M. Caricato, X. Li, H. P. Hratchian, 
 A. F. Izmaylov, J. Bloino, B. G. Janesko, F. Lipparini, G. Zheng, 
 J. L. Sonnenberg, W. Liang, M. Hada, M. Ehara, K. Toyota, R. Fukuda, 
 J. Hasegawa, M. Ishida, T. Nakajima, Y. Honda, O. Kitao, H. Nakai, 
 T. Vreven, J. A. Montgomery, Jr., J. E. Peralta, F. Ogliaro, 
 M. Bearpark, J. J. Heyd, E. Brothers, K. N. Kudin, V. N. Staroverov, 
 T. Keith, R. Kobayashi, J. Normand, K. Raghavachari, A. Rendell, 
 J. C. Burant, S. S. Iyengar, J. Tomasi, M. Cossi, N. Rega, 
 J. M. Millam, M. Klene, J. E. Knox, J. B. Cross, V. Bakken, 
 C. Adamo, J. Jaramillo, R. Gomperts, R. E. Stratmann, O. Yazyev, 
 A. J. Austin, R. Cammi, C. Pomelli, J. W. Ochterski, R. L. Martin, 
 K. Morokuma, V. G. Zakrzewski, G. A. Voth, P. Salvador, 
 J. J. Dannenberg, S. Dapprich, P. V. Parandekar, N. J. Mayhall, 
 A. D. Daniels, O. Farkas, J. B. Foresman, J. V. Ortiz, 
 J. Cioslowski, and D. J. Fox, Gaussian, Inc., Wallingford CT, 2010.
 
 *******************************************
 Gaussian DV:  ES64L-GDVRevI.01+ 11-Sep-2014
                 22-Sep-2015 
 *******************************************
 ---------------------------------------------------------------
 #p hf/sto-3g gfinput pop=full nosymm cis(full,nstates=12,50-50)
 ---------------------------------------------------------------
 1/38=1,172=1/1;
 2/12=2,15=1,17=6,18=5,40=1/2;
 3/6=3,11=9,24=10,25=1,30=1/1,2,8,3;
 4//1;
 5/5=2,38=5/2;
 8/6=1,10=90,108=12/1,4;
 9/41=12,42=3,48=2/14;
 6/7=3/1;
 99/5=1,9=1/99;
 Leave Link    1 at Tue Sep 22 14:54:31 2015, MaxMem=           0 cpu:               0.0 elap:               0.0
 (Enter /home/gauss/gdvi01p/gdv/l101.exe)
 ------------
 Water STO-3G
 ------------
 Symbolic Z-matrix:
 Charge =  0 Multiplicity = 1
 O                     0.       -0.07579   0. 
 H                     0.86681   0.60144   0. 
 H                    -0.86681   0.60144   0. 
 
 ITRead=  0  0  0
 MicOpt= -1 -1 -1
 NAtoms=      3 NQM=        3 NQMF=       0 NMMI=      0 NMMIF=      0
                NMic=       0 NMicF=      0.
                    Isotopes and Nuclear Properties:
 (Nuclear quadrupole moments (NQMom) in fm**2, nuclear magnetic moments (NMagM)
  in nuclear magnetons)

  Atom         1           2           3
 IAtWgt=          16           1           1
 AtmWgt=  15.9949146   1.0078250   1.0078250
 NucSpn=           0           1           1
 AtZEff=   0.0000000   0.0000000   0.0000000
 NQMom=    0.0000000   0.0000000   0.0000000
 NMagM=    0.0000000   2.7928460   2.7928460
 AtZNuc=   8.0000000   1.0000000   1.0000000
 Leave Link  101 at Tue Sep 22 14:54:32 2015, MaxMem=    33554432 cpu:               0.1 elap:               0.1
 (Enter /home/gauss/gdvi01p/gdv/l202.exe)
                          Input orientation:                          
 ---------------------------------------------------------------------
 Center     Atomic      Atomic             Coordinates (Angstroms)
 Number     Number       Type             X           Y           Z
 ---------------------------------------------------------------------
      1          8           0        0.000000   -0.075792    0.000000
      2          1           0        0.866812    0.601436    0.000000
      3          1           0       -0.866812    0.601436    0.000000
 ---------------------------------------------------------------------
                    Distance matrix (angstroms):
                    1          2          3
     1  O    0.000000
     2  H    1.100000   0.000000
     3  H    1.100000   1.733624   0.000000
 Symmetry turned off by external request.
 Stoichiometry    H2O
 Framework group  C2V[C2(O),SGV(H2)]
 Deg. of freedom     2
 Full point group                 C2V     NOp   4
 Rotational constants (GHZ):    615.5709784    333.6970768    216.3922350
 Leave Link  202 at Tue Sep 22 14:54:32 2015, MaxMem=    33554432 cpu:               0.0 elap:               0.0
 (Enter /home/gauss/gdvi01p/gdv/l301.exe)
 Standard basis: STO-3G (5D, 7F)
 Ernie: Thresh=  0.10000D-02 Tol=  0.10000D-05 Strict=F.
 AO basis set in the form of general basis input (Overlap normalization):
      1 0
 S   3 1.00       0.000000000000
      0.1307093214D+03  0.1543289673D+00
      0.2380886605D+02  0.5353281423D+00
      0.6443608313D+01  0.4446345422D+00
 SP   3 1.00       0.000000000000
      0.5033151319D+01 -0.9996722919D-01  0.1559162750D+00
      0.1169596125D+01  0.3995128261D+00  0.6076837186D+00
      0.3803889600D+00  0.7001154689D+00  0.3919573931D+00
 ****
      2 0
 S   3 1.00       0.000000000000
      0.3425250914D+01  0.1543289673D+00
      0.6239137298D+00  0.5353281423D+00
      0.1688554040D+00  0.4446345422D+00
 ****
      3 0
 S   3 1.00       0.000000000000
      0.3425250914D+01  0.1543289673D+00
      0.6239137298D+00  0.5353281423D+00
      0.1688554040D+00  0.4446345422D+00
 ****

     7 basis functions,    21 primitive gaussians,     7 cartesian basis functions
     5 alpha electrons        5 beta electrons
       nuclear repulsion energy         8.0023664856 Hartrees.
 IExCor=    0 DFT=F Ex=HF Corr=None ExCW=0 ScaHFX=  1.000000
 ScaDFX=  1.000000  1.000000  1.000000  1.000000 ScalE2=  1.000000  1.000000
 IRadAn=      0 IRanWt=     -1 IRanGd=            0 ICorTp=0 IEmpDi=  4
 NAtoms=    3 NActive=    3 NUniq=    3 SFac= 1.00D+00 NAtFMM=   60 NAOKFM=F Big=F
 Integral buffers will be    131072 words long.
 Raffenetti 1 integral format.
 Two-electron integral symmetry is turned off.
 Leave Link  301 at Tue Sep 22 14:54:32 2015, MaxMem=    33554432 cpu:               0.0 elap:               0.1
 (Enter /home/gauss/gdvi01p/gdv/l302.exe)
 NPDir=0 NMtPBC=     1 NCelOv=     1 NCel=       1 NClECP=     1 NCelD=      1
         NCelK=      1 NCelE2=     1 NClLst=     1 CellRange=     0.0.
 One-electron integrals computed using PRISM.
 One-electron integral symmetry used in STVInt
 NBasis=     7 RedAO= T EigKep=  4.34D-01  NBF=     7
 NBsUse=     7 1.00D-06 EigRej= -1.00D+00 NBFU=     7
 Leave Link  302 at Tue Sep 22 14:54:32 2015, MaxMem=    33554432 cpu:               0.1 elap:               0.1
 (Enter /home/gauss/gdvi01p/gdv/l308.exe)
 Leave Link  308 at Tue Sep 22 14:54:32 2015, MaxMem=    33554432 cpu:               0.0 elap:               0.0
 (Enter /home/gauss/gdvi01p/gdv/l303.exe)
 DipDrv:  MaxL=1.
 Leave Link  303 at Tue Sep 22 14:54:32 2015, MaxMem=    33554432 cpu:               0.0 elap:               0.0
 (Enter /home/gauss/gdvi01p/gdv/l401.exe)
 ExpMin= 1.69D-01 ExpMax= 1.31D+02 ExpMxC= 1.31D+02 IAcc=1 IRadAn=         1 AccDes= 0.00D+00
 Harris functional with IExCor=  205 and IRadAn=       1 diagonalized for initial guess.
 HarFok:  IExCor=  205 AccDes= 0.00D+00 IRadAn=         1 IDoV= 1 UseB2=F ITyADJ=14
 ICtDFT=  3500011 ScaDFX=  1.000000  1.000000  1.000000  1.000000
 FoFCou: FMM=F IPFlag=           0 FMFlag=      100000 FMFlg1=           0
         NFxFlg=           0 DoJE=T BraDBF=F KetDBF=T FulRan=T
         wScrn=  0.000000 ICntrl=       500 IOpCl=  0 I1Cent=   200000004 NGrid=           0
         NMat0=    1 NMatS0=      1 NMatT0=    0 NMatD0=    1 NMtDS0=    0 NMtDT0=    0
 Symmetry not used in FoFCou.
 Harris En= -75.0195275106161    
 JPrj=0 DoOrth=F DoCkMO=F.
 Leave Link  401 at Tue Sep 22 14:54:32 2015, MaxMem=    33554432 cpu:               0.1 elap:               0.1
 (Enter /home/gauss/gdvi01p/gdv/l502.exe)
 Keep R1 ints in memory in canonical form, NReq=802769.
 FoFCou: FMM=F IPFlag=           0 FMFlag=           0 FMFlg1=           0
         NFxFlg=           0 DoJE=F BraDBF=F KetDBF=F FulRan=T
         wScrn=  0.000000 ICntrl=       600 IOpCl=  0 I1Cent=           0 NGrid=           0
         NMat0=    1 NMatS0=     28 NMatT0=    0 NMatD0=    1 NMtDS0=    0 NMtDT0=    0
 Symmetry not used in FoFCou.
 Two-electron integral symmetry not used.
 Closed shell SCF:
 Using DIIS extrapolation, IDIIS=  1040.
 NGot=    33554432 LenX=    33552674 LenY=    33551792
 Requested convergence on RMS density matrix=1.00D-08 within 128 cycles.
 Requested convergence on MAX density matrix=1.00D-06.
 Requested convergence on             energy=1.00D-06.
 No special actions if energy rises.

 Cycle   1  Pass 1  IDiag  1:
 E= -74.8825011391691    
 DIIS: error= 7.55D-02 at cycle   1 NSaved=   1.
 NSaved= 1 IEnMin= 1 EnMin= -74.8825011391691     IErMin= 1 ErrMin= 7.55D-02
 ErrMax= 7.55D-02  0.00D+00 EMaxC= 1.00D-01 BMatC= 3.90D-02 BMatP= 3.90D-02
 IDIUse=3 WtCom= 2.45D-01 WtEn= 7.55D-01
 Coeff-Com:  0.100D+01
 Coeff-En:   0.100D+01
 Coeff:      0.100D+01
 Gap=     0.742 Goal=   None    Shift=    0.000
 GapD=    0.742 DampG=2.000 DampE=0.500 DampFc=1.0000 IDamp=-1.
 RMSDP=4.52D-02 MaxDP=1.56D-01              OVMax= 0.00D+00

 Cycle   2  Pass 1  IDiag  1:
 E= -74.9403161968612     Delta-E=       -0.057815057692 Rises=F Damp=F
 DIIS: error= 1.15D-02 at cycle   2 NSaved=   2.
 NSaved= 2 IEnMin= 2 EnMin= -74.9403161968612     IErMin= 2 ErrMin= 1.15D-02
 ErrMax= 1.15D-02  0.00D+00 EMaxC= 1.00D-01 BMatC= 1.32D-03 BMatP= 3.90D-02
 IDIUse=3 WtCom= 8.85D-01 WtEn= 1.15D-01
 Coeff-Com:  0.142D+00 0.858D+00
 Coeff-En:   0.000D+00 0.100D+01
 Coeff:      0.126D+00 0.874D+00
 Gap=     0.866 Goal=   None    Shift=    0.000
 RMSDP=6.25D-03 MaxDP=2.12D-02 DE=-5.78D-02 OVMax= 0.00D+00

 Cycle   3  Pass 1  IDiag  1:
 E= -74.9420697178212     Delta-E=       -0.001753520960 Rises=F Damp=F
 DIIS: error= 8.69D-04 at cycle   3 NSaved=   3.
 NSaved= 3 IEnMin= 3 EnMin= -74.9420697178212     IErMin= 3 ErrMin= 8.69D-04
 ErrMax= 8.69D-04  0.00D+00 EMaxC= 1.00D-01 BMatC= 5.73D-06 BMatP= 1.32D-03
 IDIUse=3 WtCom= 9.91D-01 WtEn= 8.69D-03
 Coeff-Com: -0.188D-01-0.843D-01 0.110D+01
 Coeff-En:   0.000D+00 0.000D+00 0.100D+01
 Coeff:     -0.186D-01-0.835D-01 0.110D+01
 Gap=     0.865 Goal=   None    Shift=    0.000
 RMSDP=5.97D-04 MaxDP=2.06D-03 DE=-1.75D-03 OVMax= 0.00D+00

 Cycle   4  Pass 1  IDiag  1:
 E= -74.9420796634273     Delta-E=       -0.000009945606 Rises=F Damp=F
 DIIS: error= 1.39D-04 at cycle   4 NSaved=   4.
 NSaved= 4 IEnMin= 4 EnMin= -74.9420796634273     IErMin= 4 ErrMin= 1.39D-04
 ErrMax= 1.39D-04  0.00D+00 EMaxC= 1.00D-01 BMatC= 1.54D-07 BMatP= 5.73D-06
 IDIUse=3 WtCom= 9.99D-01 WtEn= 1.39D-03
 Coeff-Com:  0.205D-02 0.273D-02-0.230D+00 0.123D+01
 Coeff-En:   0.000D+00 0.000D+00 0.000D+00 0.100D+01
 Coeff:      0.204D-02 0.272D-02-0.230D+00 0.122D+01
 Gap=     0.865 Goal=   None    Shift=    0.000
 RMSDP=1.07D-04 MaxDP=4.39D-04 DE=-9.95D-06 OVMax= 0.00D+00

 Cycle   5  Pass 1  IDiag  1:
 E= -74.9420799203147     Delta-E=       -0.000000256887 Rises=F Damp=F
 DIIS: error= 1.02D-05 at cycle   5 NSaved=   5.
 NSaved= 5 IEnMin= 5 EnMin= -74.9420799203147     IErMin= 5 ErrMin= 1.02D-05
 ErrMax= 1.02D-05  0.00D+00 EMaxC= 1.00D-01 BMatC= 1.08D-09 BMatP= 1.54D-07
 IDIUse=1 WtCom= 1.00D+00 WtEn= 0.00D+00
 Coeff-Com: -0.183D-02-0.241D-02 0.211D+00-0.114D+01 0.193D+01
 Coeff:     -0.183D-02-0.241D-02 0.211D+00-0.114D+01 0.193D+01
 Gap=     0.865 Goal=   None    Shift=    0.000
 RMSDP=1.84D-05 MaxDP=6.01D-05 DE=-2.57D-07 OVMax= 0.00D+00

 Cycle   6  Pass 1  IDiag  1:
 E= -74.9420799245087     Delta-E=       -0.000000004194 Rises=F Damp=F
 DIIS: error= 2.47D-07 at cycle   6 NSaved=   6.
 NSaved= 6 IEnMin= 6 EnMin= -74.9420799245087     IErMin= 6 ErrMin= 2.47D-07
 ErrMax= 2.47D-07  0.00D+00 EMaxC= 1.00D-01 BMatC= 5.45D-13 BMatP= 1.08D-09
 IDIUse=1 WtCom= 1.00D+00 WtEn= 0.00D+00
 Coeff-Com: -0.114D-08 0.216D-05 0.575D-03-0.332D-02 0.775D-02 0.995D+00
 Coeff:     -0.114D-08 0.216D-05 0.575D-03-0.332D-02 0.775D-02 0.995D+00
 Gap=     0.865 Goal=   None    Shift=    0.000
 RMSDP=1.51D-07 MaxDP=5.02D-07 DE=-4.19D-09 OVMax= 0.00D+00

 Cycle   7  Pass 1  IDiag  1:
 E= -74.9420799245094     Delta-E=       -0.000000000001 Rises=F Damp=F
 DIIS: error= 2.21D-10 at cycle   7 NSaved=   7.
 NSaved= 7 IEnMin= 7 EnMin= -74.9420799245094     IErMin= 7 ErrMin= 2.21D-10
 ErrMax= 2.21D-10  0.00D+00 EMaxC= 1.00D-01 BMatC= 4.80D-19 BMatP= 5.45D-13
 IDIUse=1 WtCom= 1.00D+00 WtEn= 0.00D+00
 Coeff-Com:  0.691D-11 0.135D-07-0.711D-06 0.319D-05-0.188D-04-0.106D-02
 Coeff-Com:  0.100D+01
 Coeff:      0.691D-11 0.135D-07-0.711D-06 0.319D-05-0.188D-04-0.106D-02
 Coeff:      0.100D+01
 Gap=     0.865 Goal=   None    Shift=    0.000
 RMSDP=2.93D-10 MaxDP=1.07D-09 DE=-7.96D-13 OVMax= 0.00D+00

 SCF Done:  E(RHF) =  -74.9420799245     A.U. after    7 cycles
            NFock=  7  Conv=0.29D-09     -V/T= 2.0082
 KE= 7.433493335452D+01 PE=-1.945344914698D+02 EE= 3.725511170518D+01
 Leave Link  502 at Tue Sep 22 14:54:32 2015, MaxMem=    33554432 cpu:               0.1 elap:               0.1
 (Enter /home/gauss/gdvi01p/gdv/l801.exe)
 Range of M.O.s used for correlation:     1     7
 NBasis=     7 NAE=     5 NBE=     5 NFC=     0 NFV=     0
 NROrb=      7 NOA=     5 NOB=     5 NVA=     2 NVB=     2
 Leave Link  801 at Tue Sep 22 14:54:32 2015, MaxMem=    33554432 cpu:               0.0 elap:               0.0
 (Enter /home/gauss/gdvi01p/gdv/l804.exe)
 Closed-shell transformation, MDV=    33554432 ITran=3 ISComp=1.
 Unit  1 TFree=          3072 TCopy=        147494.
 Semi-Direct transformation.
 ModeAB=           2 MOrb=             5 LenV=      33435057
 LASXX=          265 LTotXX=         265 LenRXX=         265
 LTotAB=         520 MaxLAS=         980 LenRXY=         980
 NonZer=        1190 LenScr=      785920 LnRSAI=           0
 LnScr1=           0 LExtra=           0 Total=       787165
 MaxDsk=          -1 SrtSym=           F ITran=            3
 DoSDTr:  NPSUse=  1
 JobTyp=0 Pass  1:  I=   1 to   5.
 (rs|ai) integrals will be sorted in core.
 Complete sort for first half transformation.
 First half transformation complete.
 Complete sort for second half transformation.
 Second half transformation complete.
 Spin components of T(2) and E(2):
     alpha-alpha T2 =       0.6853786919D-03 E2=     -0.1553110909D-02
     alpha-beta  T2 =       0.2061986403D-01 E2=     -0.4604342350D-01
     beta-beta   T2 =       0.6853786919D-03 E2=     -0.1553110909D-02
 ANorm=    0.1010935518D+01
 E2 =    -0.4914964531D-01 EUMP2 =    -0.74991229569823D+02
 Leave Link  804 at Tue Sep 22 14:54:32 2015, MaxMem=    33554432 cpu:               0.0 elap:               0.0
 (Enter /home/gauss/gdvi01p/gdv/l914.exe)
 RHF ground state
 MDV=    33554432 DFT=F DoStab=F Mixed=F DoRPA=F DoScal=F NonHer=F
 Making orbital integer symmetry assigments:
 FoFJK:  IHMeth= 1 ICntrl=       0 DoSepK=F KAlg= 0 I1Cent=           0 FoldK=F
 IRaf=         0 NMat=       1 IRICut=       1 DoRegI=T DoRafI=F ISym2E= 0 IDoP0=0 IntGTp=1.
 FoFCou: FMM=F IPFlag=           0 FMFlag=      100000 FMFlg1=           0
         NFxFlg=           0 DoJE=F BraDBF=F KetDBF=F FulRan=T
         wScrn=  0.000000 ICntrl=         0 IOpCl=  1 I1Cent=           0 NGrid=           0
         NMat0=    1 NMatS0=      1 NMatT0=    0 NMatD0=    1 NMtDS0=    0 NMtDT0=    0
 Symmetry not used in FoFCou.
    20 initial guesses have been made.
 Convergence on wavefunction:    0.001000000000000
 Davidson Disk Diagonalization:  ConvIn= 1.00D-03 SkipCon=T Conv= 1.00D-03.
 Max sub-space:   200 roots to seek:    24 dimension of matrix:           20
 *** WARNING: Number of orthogonal guesses is           20
 Iteration     1 Dimension    20 NMult     0 NNew     20
 New state      1 was old state      2
 New state      2 was old state      4
 New state      3 was old state      1
 New state      4 was old state      6
 New state      5 was old state      8
 New state      6 was old state      5
 New state      7 was old state      3
 New state      8 was old state     10
 New state      9 was old state      7
 New state     10 was old state     12
 New state     11 was old state      9
 New state     12 was old state     11
 New state     13 was old state     14
 New state     14 was old state     16
 New state     15 was old state     13
 New state     16 was old state     15
 New state     17 was old state     18
 New state     18 was old state     17
 New state     19 was old state     20
 New state     20 was old state     19
 Excitation Energies [eV] at current iteration:
 Root      1 :     7.816618901316989
 Root      2 :     9.372279451976187
 Root      3 :     9.699816950749542
 Root      4 :     9.959065949627457
 Root      5 :    10.735264844046550
 Root      6 :    11.321886775412280
 Root      7 :    13.758844790103070
 Root      8 :    13.994541351461750
 Root      9 :    15.107538298636620
 Root     10 :    15.321524886559780
 Root     11 :    17.832120826364100
 Root     12 :    24.765669939356940
 Root     13 :    30.171191351162740
 Root     14 :    32.656275174559970
 Root     15 :    35.396164336327350
 Root     16 :    36.075819329638920
 Root     17 :   543.099139871675400
 Root     18 :   544.526458885409100
 Root     19 :   544.536327256229100
 Root     20 :   545.602737417230700
 Convergence achieved for final wavefunctions.
 ***********************************************************************
 Excited states from <AA,BB:AA,BB> singles matrix:
 ***********************************************************************
 
 1PDM for each excited state written to RWF  633
 Ground to excited state transition densities written to RWF  633
 Ground to excited state transition electric dipole moments (Au):
       state          X           Y           Z        Dip. S.      Osc.
         1         0.0000      0.0000      0.0000      0.0000      0.0000
         2         0.0000      0.0000      0.0000      0.0000      0.0000
         3         0.0000      0.0000     -0.0993      0.0099      0.0023
         4         0.0000      0.0000      0.0000      0.0000      0.0000
         5         0.0000      0.0000      0.0000      0.0000      0.0000
         6         0.0000      0.0000      0.0000      0.0000      0.0000
         7         0.0000      0.4389      0.0000      0.1926      0.0649
         8         0.0000      0.0000      0.0000      0.0000      0.0000
         9         0.2044      0.0000      0.0000      0.0418      0.0155
        10         0.0000      0.0000      0.0000      0.0000      0.0000
        11         1.6928      0.0000      0.0000      2.8656      1.2519
        12         0.0000      1.1828      0.0000      1.3989      0.8488
        13         0.0000      0.0000      0.0000      0.0000      0.0000
        14         0.0000      0.0000      0.0000      0.0000      0.0000
        15         0.0000      0.3264      0.0000      0.1065      0.0924
        16         0.0327      0.0000      0.0000      0.0011      0.0009
        17         0.0000      0.0000      0.0000      0.0000      0.0000
        18         0.0000     -0.0656      0.0000      0.0043      0.0574
        19         0.0000      0.0000      0.0000      0.0000      0.0000
        20        -0.0786      0.0000      0.0000      0.0062      0.0827
 Ground to excited state transition velocity dipole moments (Au):
       state          X           Y           Z        Dip. S.      Osc.
         1         0.0000      0.0000      0.0000      0.0000      0.0000
         2         0.0000      0.0000      0.0000      0.0000      0.0000
         3         0.0000      0.0000     -0.1305      0.0170      0.0319
         4         0.0000      0.0000      0.0000      0.0000      0.0000
         5         0.0000      0.0000      0.0000      0.0000      0.0000
         6         0.0000      0.0000      0.0000      0.0000      0.0000
         7         0.0000     -0.2735      0.0000      0.0748      0.0987
         8         0.0000      0.0000      0.0000      0.0000      0.0000
         9        -0.0705      0.0000      0.0000      0.0050      0.0060
        10         0.0000      0.0000      0.0000      0.0000      0.0000
        11        -0.7636      0.0000      0.0000      0.5830      0.5931
        12         0.0000     -0.5395      0.0000      0.2910      0.2132
        13         0.0000      0.0000      0.0000      0.0000      0.0000
        14         0.0000      0.0000      0.0000      0.0000      0.0000
        15         0.0000     -0.1734      0.0000      0.0301      0.0154
        16        -0.0553      0.0000      0.0000      0.0031      0.0015
        17         0.0000      0.0000      0.0000      0.0000      0.0000
        18         0.0000      0.9894      0.0000      0.9790      0.0326
        19         0.0000      0.0000      0.0000      0.0000      0.0000
        20         1.2266      0.0000      0.0000      1.5046      0.0500
 Ground to excited state transition magnetic dipole moments (Au):
       state          X           Y           Z
         1         0.0000      0.0000      0.0000
         2         0.0000      0.0000      0.0000
         3        -0.6046      0.0000      0.0000
         4         0.0000      0.0000      0.0000
         5         0.0000      0.0000      0.0000
         6         0.0000      0.7439      0.0000
         7         0.0000      0.0000      0.0000
         8         0.0000      0.0000      0.0000
         9         0.0000      0.0000     -0.7712
        10         0.0000      0.0000      0.0000
        11         0.0000      0.0000     -0.0644
        12         0.0000      0.0000      0.0000
        13         0.0000      0.0000      0.0000
        14         0.0000      0.0000      0.0000
        15         0.0000      0.0000      0.0000
        16         0.0000      0.0000     -0.0976
        17         0.0000      0.0000      0.0000
        18         0.0000      0.0000      0.0000
        19         0.0000      0.0000      0.0000
        20         0.0000      0.0000      0.1747
 Ground to excited state transition velocity quadrupole moments (Au):
       state          XX          YY          ZZ          XY          XZ          YZ
         1         0.0000      0.0000      0.0000      0.0000      0.0000      0.0000
         2         0.0000      0.0000      0.0000      0.0000      0.0000      0.0000
         3         0.0000      0.0000      0.0000      0.0000      0.0000     -0.0410
         4         0.0000      0.0000      0.0000      0.0000      0.0000      0.0000
         5         0.0000      0.0000      0.0000      0.0000      0.0000      0.0000
         6         0.0000      0.0000      0.0000      0.0000     -0.0789      0.0000
         7        -0.0206     -0.0928      0.0015      0.0000      0.0000      0.0000
         8         0.0000      0.0000      0.0000      0.0000      0.0000      0.0000
         9         0.0000      0.0000      0.0000     -0.0129      0.0000      0.0000
        10         0.0000      0.0000      0.0000      0.0000      0.0000      0.0000
        11         0.0000      0.0000      0.0000     -0.7508      0.0000      0.0000
        12        -0.9978     -0.4148     -0.0712      0.0000      0.0000      0.0000
        13         0.0000      0.0000      0.0000      0.0000      0.0000      0.0000
        14         0.0000      0.0000      0.0000      0.0000      0.0000      0.0000
        15        -1.2564     -0.8083     -0.1669      0.0000      0.0000      0.0000
        16         0.0000      0.0000      0.0000     -0.6984      0.0000      0.0000
        17         0.0000      0.0000      0.0000      0.0000      0.0000      0.0000
        18         0.1237     -0.1494      0.1498      0.0000      0.0000      0.0000
        19         0.0000      0.0000      0.0000      0.0000      0.0000      0.0000
        20         0.0000      0.0000      0.0000     -0.1978      0.0000      0.0000
 <0|del|b> * <b|rxdel|0> + <0|del|b> * <b|delr+rdel|0>
 Rotatory Strengths (R) in cgs (10**-40 erg-esu-cm/Gauss)
       state          XX          YY          ZZ    R(velocity)    E-M Angle
         1         0.0000      0.0000      0.0000      0.0000       90.00
         2         0.0000      0.0000      0.0000      0.0000       90.00
         3         0.0000      0.0000      0.0000      0.0000       90.00
         4         0.0000      0.0000      0.0000      0.0000       90.00
         5         0.0000      0.0000      0.0000      0.0000       90.00
         6         0.0000      0.0000      0.0000      0.0000       90.00
         7         0.0000      0.0000      0.0000      0.0000       90.00
         8         0.0000      0.0000      0.0000      0.0000       90.00
         9         0.0000      0.0000      0.0000      0.0000       90.00
        10         0.0000      0.0000      0.0000      0.0000       90.00
        11         0.0000      0.0000      0.0000      0.0000       90.00
        12         0.0000      0.0000      0.0000      0.0000       90.00
        13         0.0000      0.0000      0.0000      0.0000       90.00
        14         0.0000      0.0000      0.0000      0.0000       90.00
        15         0.0000      0.0000      0.0000      0.0000       90.00
        16         0.0000      0.0000      0.0000      0.0000       90.00
        17         0.0000      0.0000      0.0000      0.0000       90.00
        18         0.0000      0.0000      0.0000      0.0000       90.00
        19         0.0000      0.0000      0.0000      0.0000       90.00
        20         0.0000      0.0000      0.0000      0.0000       90.00
 1/2[<0|r|b>*<b|rxdel|0> + (<0|rxdel|b>*<b|r|0>)*]
 Rotatory Strengths (R) in cgs (10**-40 erg-esu-cm/Gauss)
       state          XX          YY          ZZ     R(length)
         1         0.0000      0.0000      0.0000      0.0000
         2         0.0000      0.0000      0.0000      0.0000
         3         0.0000      0.0000      0.0000      0.0000
         4         0.0000      0.0000      0.0000      0.0000
         5         0.0000      0.0000      0.0000      0.0000
         6         0.0000      0.0000      0.0000      0.0000
         7         0.0000      0.0000      0.0000      0.0000
         8         0.0000      0.0000      0.0000      0.0000
         9         0.0000      0.0000      0.0000      0.0000
        10         0.0000      0.0000      0.0000      0.0000
        11         0.0000      0.0000      0.0000      0.0000
        12         0.0000      0.0000      0.0000      0.0000
        13         0.0000      0.0000      0.0000      0.0000
        14         0.0000      0.0000      0.0000      0.0000
        15         0.0000      0.0000      0.0000      0.0000
        16         0.0000      0.0000      0.0000      0.0000
        17         0.0000      0.0000      0.0000      0.0000
        18         0.0000      0.0000      0.0000      0.0000
        19         0.0000      0.0000      0.0000      0.0000
        20         0.0000      0.0000      0.0000      0.0000
  1/2[<0|del|b>*<b|r|0> + (<0|r|b>*<b|del|0>)*] (Au)
       state          X           Y           Z        Dip. S.   Osc.(frdel)
         1         0.0000      0.0000      0.0000      0.0000      0.0000
         2         0.0000      0.0000      0.0000      0.0000      0.0000
         3         0.0000      0.0000      0.0130     -0.0130     -0.0086
         4         0.0000      0.0000      0.0000      0.0000      0.0000
         5         0.0000      0.0000      0.0000      0.0000      0.0000
         6         0.0000      0.0000      0.0000      0.0000      0.0000
         7         0.0000     -0.1201      0.0000      0.1201      0.0800
         8         0.0000      0.0000      0.0000      0.0000      0.0000
         9        -0.0144      0.0000      0.0000      0.0144      0.0096
        10         0.0000      0.0000      0.0000      0.0000      0.0000
        11        -1.2926      0.0000      0.0000      1.2926      0.8617
        12         0.0000     -0.6381      0.0000      0.6381      0.4254
        13         0.0000      0.0000      0.0000      0.0000      0.0000
        14         0.0000      0.0000      0.0000      0.0000      0.0000
        15         0.0000     -0.0566      0.0000      0.0566      0.0377
        16        -0.0018      0.0000      0.0000      0.0018      0.0012
        17         0.0000      0.0000      0.0000      0.0000      0.0000
        18         0.0000     -0.0649      0.0000      0.0649      0.0433
        19         0.0000      0.0000      0.0000      0.0000      0.0000
        20        -0.0965      0.0000      0.0000      0.0965      0.0643

 Excitation energies and oscillator strengths:
 
 Excited state symmetry could not be determined.
 Excited State   1:      Triplet-?Sym    7.8166 eV  158.62 nm  f=0.0000  <S**2>=2.000
       5 ->  6         0.70711
 This state for optimization and/or second-order correction.
 Total Energy, E(CIS) =  -74.6548244654    
 Copying the excited state density for this state as the 1-particle RhoCI density.
 
 Excited state symmetry could not be determined.
 Excited State   2:      Triplet-?Sym    9.3723 eV  132.29 nm  f=0.0000  <S**2>=2.000
       3 ->  7         0.22571
       4 ->  6         0.66652
 
 Excited state symmetry could not be determined.
 Excited State   3:      Singlet-?Sym    9.6998 eV  127.82 nm  f=0.0023  <S**2>=0.000
       5 ->  6         0.70711
 
 Excited state symmetry could not be determined.
 Excited State   4:      Triplet-?Sym    9.9591 eV  124.49 nm  f=0.0000  <S**2>=2.000
       5 ->  7         0.70711
 
 Excited state symmetry could not be determined.
 Excited State   5:      Triplet-?Sym   10.7353 eV  115.49 nm  f=0.0000  <S**2>=2.000
       3 ->  6         0.45072
       4 ->  7         0.54360
 
 Excited state symmetry could not be determined.
 Excited State   6:      Singlet-?Sym   11.3219 eV  109.51 nm  f=0.0000  <S**2>=0.000
       5 ->  7         0.70711
 
 Excited state symmetry could not be determined.
 Excited State   7:      Singlet-?Sym   13.7588 eV   90.11 nm  f=0.0649  <S**2>=0.000
       3 ->  7        -0.24379
       4 ->  6         0.66221
 
 Excited state symmetry could not be determined.
 Excited State   8:      Triplet-?Sym   13.9945 eV   88.59 nm  f=0.0000  <S**2>=2.000
       3 ->  6         0.53801
       4 ->  7        -0.45157
 
 Excited state symmetry could not be determined.
 Excited State   9:      Singlet-?Sym   15.1075 eV   82.07 nm  f=0.0155  <S**2>=0.000
       3 ->  6        -0.39080
       4 ->  7         0.58930
 
 Excited state symmetry could not be determined.
 Excited State  10:      Triplet-?Sym   15.3215 eV   80.92 nm  f=0.0000  <S**2>=2.000
       3 ->  7         0.66187
       4 ->  6        -0.23318
 
 Excited state symmetry could not be determined.
 Excited State  11:      Singlet-?Sym   17.8321 eV   69.53 nm  f=1.2519  <S**2>=0.000
       3 ->  6         0.58866
       4 ->  7         0.39043
 
 Excited state symmetry could not be determined.
 Excited State  12:      Singlet-?Sym   24.7657 eV   50.06 nm  f=0.8488  <S**2>=0.000
       2 ->  6        -0.13423
       3 ->  7         0.65443
       4 ->  6         0.23174
 
 Excited state symmetry could not be determined.
 Excited State  13:      Triplet-?Sym   30.1712 eV   41.09 nm  f=0.0000  <S**2>=2.000
       2 ->  6         0.69831
       3 ->  7        -0.10479
 
 Excited state symmetry could not be determined.
 Excited State  14:      Triplet-?Sym   32.6563 eV   37.97 nm  f=0.0000  <S**2>=2.000
       2 ->  7         0.70145
 
 Excited state symmetry could not be determined.
 Excited State  15:      Singlet-?Sym   35.3962 eV   35.03 nm  f=0.0924  <S**2>=0.000
       2 ->  6         0.69277
       3 ->  7         0.11086
 
 Excited state symmetry could not be determined.
 Excited State  16:      Singlet-?Sym   36.0758 eV   34.37 nm  f=0.0009  <S**2>=0.000
       2 ->  7         0.70636
 
 Excited state symmetry could not be determined.
 Excited State  17:      Triplet-?Sym  543.0991 eV    2.28 nm  f=0.0000  <S**2>=2.000
       1 ->  6         0.70711
 
 Excited state symmetry could not be determined.
 Excited State  18:      Singlet-?Sym  544.5265 eV    2.28 nm  f=0.0574  <S**2>=0.000
       1 ->  6         0.70711
 
 Excited state symmetry could not be determined.
 Excited State  19:      Triplet-?Sym  544.5363 eV    2.28 nm  f=0.0000  <S**2>=2.000
       1 ->  7         0.70711
 
 Excited state symmetry could not be determined.
 Excited State  20:      Singlet-?Sym  545.6027 eV    2.27 nm  f=0.0827  <S**2>=0.000
       1 ->  7         0.70710
 SavETr:  write IOETrn=   770 NScale= 10 NData=  16 NLR=1 NState=   20 LETran=     370.
 Leave Link  914 at Tue Sep 22 14:54:32 2015, MaxMem=    33554432 cpu:               0.1 elap:               0.1
 (Enter /home/gauss/gdvi01p/gdv/l601.exe)
 Copying SCF densities to generalized density rwf, IOpCl= 0 IROHF=0.

 **********************************************************************

            Population analysis using the SCF density.

 **********************************************************************

 Alpha  occ. eigenvalues --  -20.26289  -1.20970  -0.54796  -0.43653  -0.38759
 Alpha virt. eigenvalues --    0.47762   0.58814
     Molecular Orbital Coefficients:
                           1         2         3         4         5
                           O         O         O         O         O
     Eigenvalues --   -20.26289  -1.20970  -0.54796  -0.43653  -0.38759
   1 1   O  1S          0.99443  -0.23916   0.00000   0.09368   0.00000
   2        2S          0.02410   0.88574   0.00000  -0.47959   0.00000
   3        2PX         0.00000   0.00000   0.60728   0.00000   0.00000
   4        2PY         0.00316   0.08590   0.00000   0.74743   0.00000
   5        2PZ         0.00000   0.00000   0.00000   0.00000   1.00000
   6 2   H  1S         -0.00459   0.14404   0.45300   0.32947   0.00000
   7 3   H  1S         -0.00459   0.14404  -0.45300   0.32947   0.00000
                           6         7
                           V         V
     Eigenvalues --     0.47762   0.58814
   1 1   O  1S         -0.11164   0.00000
   2        2S          0.66958   0.00000
   3        2PX         0.00000   0.91923
   4        2PY         0.73849   0.00000
   5        2PZ         0.00000   0.00000
   6 2   H  1S         -0.70985  -0.73246
   7 3   H  1S         -0.70985   0.73246
     Density Matrix:
                           1         2         3         4         5
   1 1   O  1S          2.10975
   2        2S         -0.46560   2.03022
   3        2PX         0.00000   0.00000   0.73759
   4        2PY         0.10525  -0.56460   0.00000   1.13208
   5        2PZ         0.00000   0.00000   0.00000   0.00000   2.00000
   6 2   H  1S         -0.01630  -0.06108   0.55020   0.51723   0.00000
   7 3   H  1S         -0.01630  -0.06108  -0.55020   0.51723   0.00000
                           6         7
   6 2   H  1S          0.66905
   7 3   H  1S         -0.15177   0.66905
    Full Mulliken population analysis:
                           1         2         3         4         5
   1 1   O  1S          2.10975
   2        2S         -0.11021   2.03022
   3        2PX         0.00000   0.00000   0.73759
   4        2PY         0.00000   0.00000   0.00000   1.13208
   5        2PZ         0.00000   0.00000   0.00000   0.00000   2.00000
   6 2   H  1S         -0.00063  -0.02358   0.14769   0.10848   0.00000
   7 3   H  1S         -0.00063  -0.02358   0.14769   0.10848   0.00000
                           6         7
   6 2   H  1S          0.66905
   7 3   H  1S         -0.02759   0.66905
     Gross orbital populations:
                           1
   1 1   O  1S          1.99829
   2        2S          1.87284
   3        2PX         1.03298
   4        2PY         1.34904
   5        2PZ         2.00000
   6 2   H  1S          0.87343
   7 3   H  1S          0.87343
          Condensed to atoms (all electrons):
               1          2          3
     1  O    7.789226   0.231960   0.231960
     2  H    0.231960   0.669053  -0.027586
     3  H    0.231960  -0.027586   0.669053
 Mulliken charges:
               1
     1  O   -0.253146
     2  H    0.126573
     3  H    0.126573
 Sum of Mulliken charges =   0.00000
 Mulliken charges with hydrogens summed into heavy atoms:
               1
     1  O    0.000000
 Electronic spatial extent (au):  <R**2>=             19.8086
 Charge=              0.0000 electrons
 Dipole moment (field-independent basis, Debye):
    X=              0.0000    Y=              1.5340    Z=              0.0000  Tot=              1.5340
 Quadrupole moment (field-independent basis, Debye-Ang):
   XX=             -4.3168   YY=             -5.2054   ZZ=             -6.2076
   XY=              0.0000   XZ=              0.0000   YZ=              0.0000
 Traceless Quadrupole moment (field-independent basis, Debye-Ang):
   XX=              0.9265   YY=              0.0378   ZZ=             -0.9643
   XY=              0.0000   XZ=              0.0000   YZ=              0.0000
 Octapole moment (field-independent basis, Debye-Ang**2):
  XXX=              0.0000  YYY=             -0.9572  ZZZ=              0.0000  XYY=              0.0000
  XXY=              0.3916  XXZ=              0.0000  XZZ=              0.0000  YZZ=             -0.4476
  YYZ=              0.0000  XYZ=              0.0000
 Hexadecapole moment (field-independent basis, Debye-Ang**3):
 XXXX=             -7.9263 YYYY=             -5.8351 ZZZZ=             -3.3591 XXXY=              0.0000
 XXXZ=              0.0000 YYYX=              0.0000 YYYZ=              0.0000 ZZZX=              0.0000
 ZZZY=              0.0000 XXYY=             -1.9038 XXZZ=             -2.1047 YYZZ=             -1.5957
 XXYZ=              0.0000 YYXZ=              0.0000 ZZXY=              0.0000
 N-N= 8.002366485626D+00 E-N=-1.945344914650D+02  KE= 7.433493335452D+01
 Orbital energies and kinetic energies (alpha):
                                 1                 2
   1         O               -20.262891         28.673863
   2         O                -1.209697          2.456937
   3         O                -0.547965          1.408002
   4         O                -0.436527          2.099933
   5         O                -0.387587          2.528731
   6         V                 0.477619          2.512216
   7         V                 0.588139          2.560392
 Total kinetic energy from orbitals= 7.433493335452D+01
 Leave Link  601 at Tue Sep 22 14:54:32 2015, MaxMem=    33554432 cpu:               0.0 elap:               0.0
 (Enter /home/gauss/gdvi01p/gdv/l9999.exe)
 Unable to Open any file for archive entry.
 1\1\GINC-MEDUSA\SP\RCIS-Full\STO-3G\H2O1\DBWY\22-Sep-2015\0\\#p hf/sto
 -3g gfinput pop=full nosymm cis(full,nstates=12,50-50)\\Water STO-3G\\
 0,1\O,0,0.,-0.0757918436,0.\H,0,0.866811829,0.6014357793,0.\H,0,-0.866
 811829,0.6014357793,0.\\Version=ES64L-GDVRevI.01+\HF=-74.9420799\MP2=-
 74.9912296\RMSD=2.935e-10\PG=C02V [C2(O1),SGV(H2)]\\@
 The archive entry for this job was punched.


 FOR THE NATURE OF THE CHEMICAL BOND
 IS THE PROBLEM AT THE HEART OF ALL CHEMISTRY.

                     -- BRYCE CRAWFORD, JR., 1953
 Job cpu time:       0 days  0 hours  0 minutes  0.9 seconds.
 Elapsed time:       0 days  0 hours  0 minutes  0.6 seconds.
 File lengths (MBytes):  RWF=     12 Int=      0 D2E=      0 Chk=      1 Scr=      1
 Normal termination of Gaussian DV at Tue Sep 22 14:54:32 2015.
