 Entering Gaussian System, Link 0=gdv
 Input=h2o_631G_field.com
 Output=h2o_631G_field.log
 Initial command:
 /home/gauss/gdvi01p/gdv/l1.exe "/home/GauScr/Gau-32740.inp" -scrdir="/home/GauScr/"
 Entering Link 1 = /home/gauss/gdvi01p/gdv/l1.exe PID=     32741.
  
 Copyright (c) 1988,1990,1992,1993,1995,1998,2003,2009,2014,
            Gaussian, Inc.  All Rights Reserved.
  
 This is the private, development version of
 the Gaussian(R) DV system of programs. It is based on
 the Gaussian(R) 09 system (copyright 2009, Gaussian, Inc.),
 the Gaussian(R) 03 system (copyright 2003, Gaussian, Inc.),
 the Gaussian(R) 98 system (copyright 1998, Gaussian, Inc.),
 the Gaussian(R) 94 system (copyright 1995, Gaussian, Inc.),
 the Gaussian 92(TM) system (copyright 1992, Gaussian, Inc.),
 the Gaussian 90(TM) system (copyright 1990, Gaussian, Inc.),
 the Gaussian 88(TM) system (copyright 1988, Gaussian, Inc.),
 the Gaussian 86(TM) system (copyright 1986, Carnegie Mellon
 University), and the Gaussian 82(TM) system (copyright 1983,
 Carnegie Mellon University). Gaussian is a federally registered
 trademark of Gaussian, Inc.
  
 This software contains proprietary and confidential information,
 including trade secrets, belonging to Gaussian, Inc.
  
 This software is provided under written license and may be
 used, copied, transmitted, or stored only in accord with that
 written license.
  
 The following legend is applicable only to US Government
 contracts under FAR:
  
                    RESTRICTED RIGHTS LEGEND
  
 Use, reproduction and disclosure by the US Government is
 subject to restrictions as set forth in subparagraphs (a)
 and (c) of the Commercial Computer Software - Restricted
 Rights clause in FAR 52.227-19.
  
 Gaussian, Inc.
 340 Quinnipiac St., Bldg. 40, Wallingford CT 06492
  
  
 ---------------------------------------------------------------
 Warning -- This program may not be used in any manner that
 competes with the business of Gaussian, Inc. or will provide
 assistance to any competitor of Gaussian, Inc.  The licensee
 of this program is prohibited from giving any competitor of
 Gaussian, Inc. access to this program.  By using this program,
 the user acknowledges that Gaussian, Inc. is engaged in the
 business of creating and licensing software in the field of
 computational chemistry and represents and warrants to the
 licensee that it is not a competitor of Gaussian, Inc. and that
 it will not use this program in any manner prohibited above.
 ---------------------------------------------------------------
  

 Cite this work as:
 Gaussian Development Version, Revision I.01+,
 M. J. Frisch, G. W. Trucks, H. B. Schlegel, G. E. Scuseria, 
 M. A. Robb, J. R. Cheeseman, G. Scalmani, V. Barone, B. Mennucci, 
 G. A. Petersson, H. Nakatsuji, M. Caricato, X. Li, H. P. Hratchian, 
 A. F. Izmaylov, J. Bloino, B. G. Janesko, F. Lipparini, G. Zheng, 
 J. L. Sonnenberg, W. Liang, M. Hada, M. Ehara, K. Toyota, R. Fukuda, 
 J. Hasegawa, M. Ishida, T. Nakajima, Y. Honda, O. Kitao, H. Nakai, 
 T. Vreven, J. A. Montgomery, Jr., J. E. Peralta, F. Ogliaro, 
 M. Bearpark, J. J. Heyd, E. Brothers, K. N. Kudin, V. N. Staroverov, 
 T. Keith, R. Kobayashi, J. Normand, K. Raghavachari, A. Rendell, 
 J. C. Burant, S. S. Iyengar, J. Tomasi, M. Cossi, N. Rega, 
 J. M. Millam, M. Klene, J. E. Knox, J. B. Cross, V. Bakken, 
 C. Adamo, J. Jaramillo, R. Gomperts, R. E. Stratmann, O. Yazyev, 
 A. J. Austin, R. Cammi, C. Pomelli, J. W. Ochterski, R. L. Martin, 
 K. Morokuma, V. G. Zakrzewski, G. A. Voth, P. Salvador, 
 J. J. Dannenberg, S. Dapprich, P. V. Parandekar, N. J. Mayhall, 
 A. D. Daniels, O. Farkas, J. B. Foresman, J. V. Ortiz, 
 J. Cioslowski, and D. J. Fox, Gaussian, Inc., Wallingford CT, 2010.
 
 *******************************************
 Gaussian DV:  ES64L-GDVRevI.01+ 11-Sep-2014
                 29-Sep-2015 
 *******************************************
 -----------------------------------------------
 #p hf/6-31G gfinput pop=full nosymm Field=X-100
 -----------------------------------------------
 1/38=1,172=1/1;
 2/12=2,15=1,17=6,18=5,40=1/2;
 3/5=1,6=6,11=9,14=1,15=-100,24=10,25=1,30=1/1,2,3;
 4//1;
 5/5=2,38=5/2;
 6/7=3,28=1/1;
 99/5=1,9=1/99;
 Leave Link    1 at Tue Sep 29 11:37:04 2015, MaxMem=           0 cpu:               0.0 elap:               0.0
 (Enter /home/gauss/gdvi01p/gdv/l101.exe)
 -----------
 Water 6-31G
 -----------
 Symbolic Z-matrix:
 Charge =  0 Multiplicity = 1
 O                     0.       -0.07579   0. 
 H                     0.86681   0.60144   0. 
 H                    -0.86681   0.60144   0. 
 
 ITRead=  0  0  0
 MicOpt= -1 -1 -1
 NAtoms=      3 NQM=        3 NQMF=       0 NMMI=      0 NMMIF=      0
                NMic=       0 NMicF=      0.
                    Isotopes and Nuclear Properties:
 (Nuclear quadrupole moments (NQMom) in fm**2, nuclear magnetic moments (NMagM)
  in nuclear magnetons)

  Atom         1           2           3
 IAtWgt=          16           1           1
 AtmWgt=  15.9949146   1.0078250   1.0078250
 NucSpn=           0           1           1
 AtZEff=   0.0000000   0.0000000   0.0000000
 NQMom=    0.0000000   0.0000000   0.0000000
 NMagM=    0.0000000   2.7928460   2.7928460
 AtZNuc=   8.0000000   1.0000000   1.0000000
 Leave Link  101 at Tue Sep 29 11:37:04 2015, MaxMem=    33554432 cpu:               0.1 elap:               0.1
 (Enter /home/gauss/gdvi01p/gdv/l202.exe)
                          Input orientation:                          
 ---------------------------------------------------------------------
 Center     Atomic      Atomic             Coordinates (Angstroms)
 Number     Number       Type             X           Y           Z
 ---------------------------------------------------------------------
      1          8           0        0.000000   -0.075792    0.000000
      2          1           0        0.866812    0.601436    0.000000
      3          1           0       -0.866812    0.601436    0.000000
 ---------------------------------------------------------------------
                    Distance matrix (angstroms):
                    1          2          3
     1  O    0.000000
     2  H    1.100000   0.000000
     3  H    1.100000   1.733624   0.000000
 Symmetry turned off by external request.
 Stoichiometry    H2O
 Framework group  C2V[C2(O),SGV(H2)]
 Deg. of freedom     2
 Full point group                 C2V     NOp   4
 Rotational constants (GHZ):    615.5709784    333.6970768    216.3922350
 Leave Link  202 at Tue Sep 29 11:37:04 2015, MaxMem=    33554432 cpu:               0.0 elap:               0.0
 (Enter /home/gauss/gdvi01p/gdv/l301.exe)
 Standard basis: 6-31G (6D, 7F)
 Ernie: Thresh=  0.10000D-02 Tol=  0.10000D-05 Strict=F.
 The following finite field(s) will be applied:
 An electric field of             -0.0100  0.0000  0.0000
 AO basis set in the form of general basis input (Overlap normalization):
      1 0
 S   6 1.00       0.000000000000
      0.5484671660D+04  0.1831074430D-02
      0.8252349460D+03  0.1395017220D-01
      0.1880469580D+03  0.6844507810D-01
      0.5296450000D+02  0.2327143360D+00
      0.1689757040D+02  0.4701928980D+00
      0.5799635340D+01  0.3585208530D+00
 SP   3 1.00       0.000000000000
      0.1553961625D+02 -0.1107775495D+00  0.7087426823D-01
      0.3599933586D+01 -0.1480262627D+00  0.3397528391D+00
      0.1013761750D+01  0.1130767015D+01  0.7271585773D+00
 SP   1 1.00       0.000000000000
      0.2700058226D+00  0.1000000000D+01  0.1000000000D+01
 ****
      2 0
 S   3 1.00       0.000000000000
      0.1873113696D+02  0.3349460434D-01
      0.2825394365D+01  0.2347269535D+00
      0.6401216923D+00  0.8137573261D+00
 S   1 1.00       0.000000000000
      0.1612777588D+00  0.1000000000D+01
 ****
      3 0
 S   3 1.00       0.000000000000
      0.1873113696D+02  0.3349460434D-01
      0.2825394365D+01  0.2347269535D+00
      0.6401216923D+00  0.8137573261D+00
 S   1 1.00       0.000000000000
      0.1612777588D+00  0.1000000000D+01
 ****

    13 basis functions,    30 primitive gaussians,    13 cartesian basis functions
     5 alpha electrons        5 beta electrons
       nuclear repulsion energy         8.0023664856 Hartrees.
 IExCor=    0 DFT=F Ex=HF Corr=None ExCW=0 ScaHFX=  1.000000
 ScaDFX=  1.000000  1.000000  1.000000  1.000000 ScalE2=  1.000000  1.000000
 IRadAn=      0 IRanWt=     -1 IRanGd=            0 ICorTp=0 IEmpDi=  4
 NAtoms=    3 NActive=    3 NUniq=    3 SFac= 1.00D+00 NAtFMM=   60 NAOKFM=F Big=F
 Integral buffers will be    131072 words long.
 Raffenetti 1 integral format.
 Two-electron integral symmetry is turned off.
 Leave Link  301 at Tue Sep 29 11:37:04 2015, MaxMem=    33554432 cpu:               0.0 elap:               0.0
 (Enter /home/gauss/gdvi01p/gdv/l302.exe)
 NPDir=0 NMtPBC=     1 NCelOv=     1 NCel=       1 NClECP=     1 NCelD=      1
         NCelK=      1 NCelE2=     1 NClLst=     1 CellRange=     0.0.
 One-electron integrals computed using PRISM.
 One-electron integral symmetry used in STVInt
 NBasis=    13 RedAO= T EigKep=  8.92D-02  NBF=    13
 NBsUse=    13 1.00D-06 EigRej= -1.00D+00 NBFU=    13
 Leave Link  302 at Tue Sep 29 11:37:04 2015, MaxMem=    33554432 cpu:               0.1 elap:               0.1
 (Enter /home/gauss/gdvi01p/gdv/l303.exe)
 DipDrv:  MaxL=1.
 The nuclear repulsion energy is now         8.0023664856 hartrees.
 Leave Link  303 at Tue Sep 29 11:37:04 2015, MaxMem=    33554432 cpu:               0.0 elap:               0.0
 (Enter /home/gauss/gdvi01p/gdv/l401.exe)
 ExpMin= 1.61D-01 ExpMax= 5.48D+03 ExpMxC= 8.25D+02 IAcc=1 IRadAn=         1 AccDes= 0.00D+00
 Harris functional with IExCor=  205 and IRadAn=       1 diagonalized for initial guess.
 HarFok:  IExCor=  205 AccDes= 0.00D+00 IRadAn=         1 IDoV= 1 UseB2=F ITyADJ=14
 ICtDFT=  3500011 ScaDFX=  1.000000  1.000000  1.000000  1.000000
 FoFCou: FMM=F IPFlag=           0 FMFlag=      100000 FMFlg1=           0
         NFxFlg=           0 DoJE=T BraDBF=F KetDBF=T FulRan=T
         wScrn=  0.000000 ICntrl=       500 IOpCl=  0 I1Cent=   200000004 NGrid=           0
         NMat0=    1 NMatS0=      1 NMatT0=    0 NMatD0=    1 NMtDS0=    0 NMtDT0=    0
 Symmetry not used in FoFCou.
 Harris En= -76.0626118347320    
 JPrj=0 DoOrth=F DoCkMO=F.
 Leave Link  401 at Tue Sep 29 11:37:04 2015, MaxMem=    33554432 cpu:               0.1 elap:               0.1
 (Enter /home/gauss/gdvi01p/gdv/l502.exe)
 Keep R1 ints in memory in canonical form, NReq=809046.
 FoFCou: FMM=F IPFlag=           0 FMFlag=           0 FMFlg1=           0
         NFxFlg=           0 DoJE=F BraDBF=F KetDBF=F FulRan=T
         wScrn=  0.000000 ICntrl=       600 IOpCl=  0 I1Cent=           0 NGrid=           0
         NMat0=    1 NMatS0=     91 NMatT0=    0 NMatD0=    1 NMtDS0=    0 NMtDT0=    0
 Symmetry not used in FoFCou.
 Two-electron integral symmetry not used.
 Closed shell SCF:
 Using DIIS extrapolation, IDIIS=  1040.
 NGot=    33554432 LenX=    33548888 LenY=    33548006
 Requested convergence on RMS density matrix=1.00D-08 within 128 cycles.
 Requested convergence on MAX density matrix=1.00D-06.
 Requested convergence on             energy=1.00D-06.
 No special actions if energy rises.

 Cycle   1  Pass 1  IDiag  1:
 E= -75.8750812385291    
 DIIS: error= 8.83D-02 at cycle   1 NSaved=   1.
 NSaved= 1 IEnMin= 1 EnMin= -75.8750812385291     IErMin= 1 ErrMin= 8.83D-02
 ErrMax= 8.83D-02  0.00D+00 EMaxC= 1.00D-01 BMatC= 1.02D-01 BMatP= 1.02D-01
 IDIUse=3 WtCom= 1.17D-01 WtEn= 8.83D-01
 Coeff-Com:  0.100D+01
 Coeff-En:   0.100D+01
 Coeff:      0.100D+01
 Gap=     0.534 Goal=   None    Shift=    0.000
 GapD=    0.534 DampG=2.000 DampE=0.500 DampFc=1.0000 IDamp=-1.
 RMSDP=2.32D-02 MaxDP=1.22D-01              OVMax= 1.39D-01

 Cycle   2  Pass 1  IDiag  1:
 E= -75.9198815269838     Delta-E=       -0.044800288455 Rises=F Damp=F
 DIIS: error= 5.88D-02 at cycle   2 NSaved=   2.
 NSaved= 2 IEnMin= 2 EnMin= -75.9198815269838     IErMin= 2 ErrMin= 5.88D-02
 ErrMax= 5.88D-02  0.00D+00 EMaxC= 1.00D-01 BMatC= 4.62D-02 BMatP= 1.02D-01
 IDIUse=3 WtCom= 4.12D-01 WtEn= 5.88D-01
 Coeff-Com:  0.394D+00 0.606D+00
 Coeff-En:   0.214D+00 0.786D+00
 Coeff:      0.288D+00 0.712D+00
 Gap=     0.672 Goal=   None    Shift=    0.000
 RMSDP=1.22D-02 MaxDP=6.44D-02 DE=-4.48D-02 OVMax= 4.95D-02

 Cycle   3  Pass 1  IDiag  1:
 E= -75.9515944225011     Delta-E=       -0.031712895517 Rises=F Damp=F
 DIIS: error= 1.24D-02 at cycle   3 NSaved=   3.
 NSaved= 3 IEnMin= 3 EnMin= -75.9515944225011     IErMin= 3 ErrMin= 1.24D-02
 ErrMax= 1.24D-02  0.00D+00 EMaxC= 1.00D-01 BMatC= 1.65D-03 BMatP= 4.62D-02
 IDIUse=3 WtCom= 8.76D-01 WtEn= 1.24D-01
 Coeff-Com: -0.419D-01 0.114D+00 0.928D+00
 Coeff-En:   0.000D+00 0.000D+00 0.100D+01
 Coeff:     -0.367D-01 0.100D+00 0.937D+00
 Gap=     0.656 Goal=   None    Shift=    0.000
 RMSDP=2.10D-03 MaxDP=1.24D-02 DE=-3.17D-02 OVMax= 1.39D-02

 Cycle   4  Pass 1  IDiag  1:
 E= -75.9530208896371     Delta-E=       -0.001426467136 Rises=F Damp=F
 DIIS: error= 2.25D-03 at cycle   4 NSaved=   4.
 NSaved= 4 IEnMin= 4 EnMin= -75.9530208896371     IErMin= 4 ErrMin= 2.25D-03
 ErrMax= 2.25D-03  0.00D+00 EMaxC= 1.00D-01 BMatC= 3.64D-05 BMatP= 1.65D-03
 IDIUse=3 WtCom= 9.77D-01 WtEn= 2.25D-02
 Coeff-Com:  0.104D-01-0.781D-01-0.321D+00 0.139D+01
 Coeff-En:   0.000D+00 0.000D+00 0.000D+00 0.100D+01
 Coeff:      0.102D-01-0.763D-01-0.314D+00 0.138D+01
 Gap=     0.661 Goal=   None    Shift=    0.000
 RMSDP=4.64D-04 MaxDP=3.42D-03 DE=-1.43D-03 OVMax= 1.29D-03

 Cycle   5  Pass 1  IDiag  1:
 E= -75.9530598865405     Delta-E=       -0.000038996903 Rises=F Damp=F
 DIIS: error= 1.95D-04 at cycle   5 NSaved=   5.
 NSaved= 5 IEnMin= 5 EnMin= -75.9530598865405     IErMin= 5 ErrMin= 1.95D-04
 ErrMax= 1.95D-04  0.00D+00 EMaxC= 1.00D-01 BMatC= 2.11D-07 BMatP= 3.64D-05
 IDIUse=3 WtCom= 9.98D-01 WtEn= 1.95D-03
 Coeff-Com: -0.231D-02 0.223D-01 0.828D-01-0.469D+00 0.137D+01
 Coeff-En:   0.000D+00 0.000D+00 0.000D+00 0.000D+00 0.100D+01
 Coeff:     -0.230D-02 0.222D-01 0.826D-01-0.468D+00 0.137D+01
 Gap=     0.662 Goal=   None    Shift=    0.000
 RMSDP=7.46D-05 MaxDP=4.41D-04 DE=-3.90D-05 OVMax= 4.21D-04

 Cycle   6  Pass 1  IDiag  1:
 E= -75.9530603942603     Delta-E=       -0.000000507720 Rises=F Damp=F
 DIIS: error= 1.67D-05 at cycle   6 NSaved=   6.
 NSaved= 6 IEnMin= 6 EnMin= -75.9530603942603     IErMin= 6 ErrMin= 1.67D-05
 ErrMax= 1.67D-05  0.00D+00 EMaxC= 1.00D-01 BMatC= 4.38D-09 BMatP= 2.11D-07
 IDIUse=1 WtCom= 1.00D+00 WtEn= 0.00D+00
 Coeff-Com:  0.799D-03-0.818D-02-0.299D-01 0.182D+00-0.585D+00 0.144D+01
 Coeff:      0.799D-03-0.818D-02-0.299D-01 0.182D+00-0.585D+00 0.144D+01
 Gap=     0.662 Goal=   None    Shift=    0.000
 RMSDP=1.14D-05 MaxDP=5.57D-05 DE=-5.08D-07 OVMax= 7.28D-05

 Cycle   7  Pass 1  IDiag  1:
 E= -75.9530604081132     Delta-E=       -0.000000013853 Rises=F Damp=F
 DIIS: error= 6.39D-06 at cycle   7 NSaved=   7.
 NSaved= 7 IEnMin= 7 EnMin= -75.9530604081132     IErMin= 7 ErrMin= 6.39D-06
 ErrMax= 6.39D-06  0.00D+00 EMaxC= 1.00D-01 BMatC= 4.29D-10 BMatP= 4.38D-09
 IDIUse=1 WtCom= 1.00D+00 WtEn= 0.00D+00
 Coeff-Com: -0.106D-03 0.133D-02 0.464D-02-0.352D-01 0.133D+00-0.597D+00
 Coeff-Com:  0.149D+01
 Coeff:     -0.106D-03 0.133D-02 0.464D-02-0.352D-01 0.133D+00-0.597D+00
 Coeff:      0.149D+01
 Gap=     0.662 Goal=   None    Shift=    0.000
 RMSDP=3.65D-06 MaxDP=1.75D-05 DE=-1.39D-08 OVMax= 2.74D-05

 Cycle   8  Pass 1  IDiag  1:
 E= -75.9530604094510     Delta-E=       -0.000000001338 Rises=F Damp=F
 DIIS: error= 6.43D-07 at cycle   8 NSaved=   8.
 NSaved= 8 IEnMin= 8 EnMin= -75.9530604094510     IErMin= 8 ErrMin= 6.43D-07
 ErrMax= 6.43D-07  0.00D+00 EMaxC= 1.00D-01 BMatC= 6.50D-12 BMatP= 4.29D-10
 IDIUse=1 WtCom= 1.00D+00 WtEn= 0.00D+00
 Coeff-Com: -0.137D-04 0.571D-04 0.293D-03 0.448D-03-0.693D-02 0.840D-01
 Coeff-Com: -0.359D+00 0.128D+01
 Coeff:     -0.137D-04 0.571D-04 0.293D-03 0.448D-03-0.693D-02 0.840D-01
 Coeff:     -0.359D+00 0.128D+01
 Gap=     0.662 Goal=   None    Shift=    0.000
 RMSDP=5.14D-07 MaxDP=1.59D-06 DE=-1.34D-09 OVMax= 3.72D-06

 Cycle   9  Pass 1  IDiag  1:
 E= -75.9530604094729     Delta-E=       -0.000000000022 Rises=F Damp=F
 DIIS: error= 9.08D-08 at cycle   9 NSaved=   9.
 NSaved= 9 IEnMin= 9 EnMin= -75.9530604094729     IErMin= 9 ErrMin= 9.08D-08
 ErrMax= 9.08D-08  0.00D+00 EMaxC= 1.00D-01 BMatC= 9.05D-14 BMatP= 6.50D-12
 IDIUse=1 WtCom= 1.00D+00 WtEn= 0.00D+00
 Coeff-Com:  0.168D-05 0.985D-06-0.125D-04-0.403D-03 0.236D-02-0.192D-01
 Coeff-Com:  0.769D-01-0.342D+00 0.128D+01
 Coeff:      0.168D-05 0.985D-06-0.125D-04-0.403D-03 0.236D-02-0.192D-01
 Coeff:      0.769D-01-0.342D+00 0.128D+01
 Gap=     0.662 Goal=   None    Shift=    0.000
 RMSDP=6.52D-08 MaxDP=2.41D-07 DE=-2.19D-11 OVMax= 4.62D-07

 Cycle  10  Pass 1  IDiag  1:
 E= -75.9530604094732     Delta-E=        0.000000000000 Rises=F Damp=F
 DIIS: error= 6.86D-09 at cycle  10 NSaved=  10.
 NSaved=10 IEnMin=10 EnMin= -75.9530604094732     IErMin=10 ErrMin= 6.86D-09
 ErrMax= 6.86D-09  0.00D+00 EMaxC= 1.00D-01 BMatC= 6.55D-16 BMatP= 9.05D-14
 IDIUse=1 WtCom= 1.00D+00 WtEn= 0.00D+00
 Coeff-Com: -0.346D-06 0.523D-06 0.462D-05 0.504D-04-0.331D-03 0.286D-02
 Coeff-Com: -0.124D-01 0.603D-01-0.282D+00 0.123D+01
 Coeff:     -0.346D-06 0.523D-06 0.462D-05 0.504D-04-0.331D-03 0.286D-02
 Coeff:     -0.124D-01 0.603D-01-0.282D+00 0.123D+01
 Gap=     0.662 Goal=   None    Shift=    0.000
 RMSDP=5.50D-09 MaxDP=2.22D-08 DE=-2.84D-13 OVMax= 3.16D-08

 SCF Done:  E(RHF) =  -75.9530604095     A.U. after   10 cycles
            NFock= 10  Conv=0.55D-08     -V/T= 2.0056
 KE= 7.553358650637D+01 PE=-1.963281441799D+02 EE= 3.683913077842D+01
 Leave Link  502 at Tue Sep 29 11:37:04 2015, MaxMem=    33554432 cpu:               0.1 elap:               0.1
 (Enter /home/gauss/gdvi01p/gdv/l601.exe)
 Copying SCF densities to generalized density rwf, IOpCl= 0 IROHF=0.

 **********************************************************************

            Population analysis using the SCF density.

 **********************************************************************

 Alpha  occ. eigenvalues --  -20.58888  -1.29411  -0.63773  -0.54050  -0.49693
 Alpha virt. eigenvalues --    0.16463   0.25678   1.00207   1.03157   1.16317
 Alpha virt. eigenvalues --    1.23310   1.36340   1.67810
     Molecular Orbital Coefficients:
                           1         2         3         4         5
                           O         O         O         O         O
     Eigenvalues --   -20.58888  -1.29411  -0.63773  -0.54050  -0.49693
   1 1   O  1S          0.99587  -0.21646  -0.00229   0.06923   0.00000
   2        2S          0.02133   0.47839   0.00456  -0.17288   0.00000
   3        2PX        -0.00004  -0.00135   0.48531   0.00246   0.00000
   4        2PY         0.00191   0.07826   0.00973   0.53296   0.00000
   5        2PZ         0.00000   0.00000   0.00000   0.00000   0.64702
   6        3S         -0.00714   0.51873   0.01563  -0.27095   0.00000
   7        3PX         0.00002  -0.00230   0.30520   0.00863   0.00000
   8        3PY        -0.00181   0.06208   0.01163   0.40214   0.00000
   9        3PZ         0.00000   0.00000   0.00000   0.00000   0.50415
  10 2   H  1S          0.00032   0.10543   0.23407   0.14485   0.00000
  11        2S          0.00154  -0.00119   0.14636   0.10516   0.00000
  12 3   H  1S          0.00032   0.10793  -0.23777   0.15524   0.00000
  13        2S          0.00156   0.00315  -0.17100   0.13381   0.00000
                           6         7         8         9        10
                           V         V         V         V         V
     Eigenvalues --     0.16463   0.25678   1.00207   1.03157   1.16317
   1 1   O  1S          0.07972   0.01287   0.01604   0.04446   0.00000
   2        2S         -0.10966  -0.02638  -0.10116  -0.28275   0.00000
   3        2PX         0.06007  -0.37408   0.23613  -0.07562   0.00000
   4        2PY        -0.28258  -0.03781  -0.14792  -0.41235   0.00000
   5        2PZ         0.00000   0.00000   0.00000   0.00000  -0.95781
   6        3S         -0.92467  -0.12593   0.14085   0.41674   0.00000
   7        3PX         0.11484  -0.74891   0.15069  -0.05040   0.00000
   8        3PY        -0.49281  -0.06253   0.03388   0.10816   0.00000
   9        3PZ         0.00000   0.00000   0.00000   0.00000   1.04013
  10 2   H  1S          0.08961   0.10639  -0.60429   1.12685   0.00000
  11        2S          0.69860   1.22522   0.58035  -0.93097   0.00000
  12 3   H  1S          0.09118  -0.06769   1.17133   0.50999   0.00000
  13        2S          1.03180  -0.98104  -1.01652  -0.36537   0.00000
                          11        12        13
                           V         V         V
     Eigenvalues --     1.23310   1.36340   1.67810
   1 1   O  1S         -0.05550   0.00114   0.06213
   2        2S          0.51447   0.00048  -1.59329
   3        2PX        -0.03866  -0.99300  -0.01158
   4        2PY        -0.84616   0.03593  -0.31276
   5        2PZ         0.00000   0.00000   0.00000
   6        3S         -0.37375  -0.01280   2.30390
   7        3PX         0.05898   1.53734   0.02263
   8        3PY         1.07694  -0.05151   0.83507
   9        3PZ         0.00000   0.00000   0.00000
  10 2   H  1S         -0.29282  -0.14626  -0.44429
  11        2S          0.02823  -0.55463  -0.45281
  12 3   H  1S         -0.28064   0.18412  -0.44248
  13        2S          0.07140   0.55725  -0.42664
     Density Matrix:
                           1         2         3         4         5
   1 1   O  1S          2.08684
   2        2S         -0.18857   0.51843
   3        2PX        -0.00138   0.00227   0.47107
   4        2PY         0.04366  -0.10923   0.01185   0.58053
   5        2PZ         0.00000   0.00000   0.00000   0.00000   0.83728
   6        3S         -0.27638   0.58982   0.01243  -0.20734   0.00000
   7        3PX         0.00084  -0.00240   0.29628   0.01477   0.00000
   8        3PY         0.02513  -0.07961   0.01310   0.43859   0.00000
   9        3PZ         0.00000   0.00000   0.00000   0.00000   0.65240
  10 2   H  1S         -0.02601   0.05294   0.22762   0.17546   0.00000
  11        2S          0.01747  -0.03610   0.14258   0.11476   0.00000
  12 3   H  1S         -0.02352   0.04744  -0.23031   0.17774   0.00000
  13        2S          0.02105  -0.04474  -0.16533   0.13981   0.00000
                           6         7         8         9        10
   6        3S          0.68557
   7        3PX         0.00248   0.18645
   8        3PY        -0.15312   0.01375   0.33143
   9        3PZ         0.00000   0.00000   0.00000   0.50834
  10 2   H  1S          0.03820   0.14489   0.13504   0.00000   0.17378
  11        2S         -0.05367   0.09116   0.08783   0.00000   0.09873
  12 3   H  1S          0.02042  -0.14295   0.13272   0.00000  -0.04357
  13        2S         -0.07461  -0.10208   0.10403   0.00000  -0.04062
                          11        12        13
  11        2S          0.06497
  12 3   H  1S         -0.03721   0.18456
  13        2S         -0.02191   0.12354   0.09432
    Full Mulliken population analysis:
                           1         2         3         4         5
   1 1   O  1S          2.08684
   2        2S         -0.04407   0.51843
   3        2PX         0.00000   0.00000   0.47107
   4        2PY         0.00000   0.00000   0.00000   0.58053
   5        2PZ         0.00000   0.00000   0.00000   0.00000   0.83728
   6        3S         -0.04623   0.45041   0.00000   0.00000   0.00000
   7        3PX         0.00000   0.00000   0.14859   0.00000   0.00000
   8        3PY         0.00000   0.00000   0.00000   0.21996   0.00000
   9        3PZ         0.00000   0.00000   0.00000   0.00000   0.32719
  10 2   H  1S         -0.00049   0.00862   0.03711   0.02235   0.00000
  11        2S          0.00102  -0.01189   0.01646   0.01035   0.00000
  12 3   H  1S         -0.00044   0.00772   0.03755   0.02264   0.00000
  13        2S          0.00123  -0.01473   0.01909   0.01261   0.00000
                           6         7         8         9        10
   6        3S          0.68557
   7        3PX         0.00000   0.18645
   8        3PY         0.00000   0.00000   0.33143
   9        3PZ         0.00000   0.00000   0.00000   0.50834
  10 2   H  1S          0.01331   0.06228   0.04535   0.00000   0.17378
  11        2S         -0.03303   0.03571   0.02688   0.00000   0.06500
  12 3   H  1S          0.00711   0.06145   0.04457   0.00000  -0.00097
  13        2S         -0.04591   0.03999   0.03184   0.00000  -0.00654
                          11        12        13
  11        2S          0.06497
  12 3   H  1S         -0.00599   0.18456
  13        2S         -0.00922   0.08133   0.09432
     Gross orbital populations:
                           1
   1 1   O  1S          1.99786
   2        2S          0.91450
   3        2PX         0.72987
   4        2PY         0.86845
   5        2PZ         1.16447
   6        3S          1.03123
   7        3PX         0.53447
   8        3PY         0.70003
   9        3PZ         0.83553
  10 2   H  1S          0.41979
  11        2S          0.16026
  12 3   H  1S          0.43954
  13        2S          0.20399
          Condensed to atoms (all electrons):
               1          2          3
     1  O    8.317652   0.234043   0.224720
     2  H    0.234043   0.368736  -0.022723
     3  H    0.224720  -0.022723   0.441533
 Mulliken charges:
               1
     1  O   -0.776414
     2  H    0.419944
     3  H    0.356470
 Sum of Mulliken charges =   0.00000
 Mulliken charges with hydrogens summed into heavy atoms:
               1
     1  O    0.000000
 Electronic spatial extent (au):  <R**2>=             21.0185
 Charge=              0.0000 electrons
 Dipole moment (field-independent basis, Debye):
    X=              0.2702    Y=              2.6579    Z=              0.0000  Tot=              2.6716
 Quadrupole moment (field-independent basis, Debye-Ang):
   XX=             -3.9965   YY=             -5.8468   ZZ=             -7.5138
   XY=              0.1410   XZ=              0.0000   YZ=              0.0000
 Traceless Quadrupole moment (field-independent basis, Debye-Ang):
   XX=              1.7892   YY=             -0.0611   ZZ=             -1.7281
   XY=              0.1410   XZ=              0.0000   YZ=              0.0000
 Octapole moment (field-independent basis, Debye-Ang**2):
  XXX=              0.4568  YYY=              0.3642  ZZZ=              0.0000  XYY=              0.1956
  XXY=              1.5048  XXZ=              0.0000  XZZ=              0.0788  YZZ=             -0.1284
  YYZ=              0.0000  XYZ=              0.0000
 Hexadecapole moment (field-independent basis, Debye-Ang**3):
 XXXX=             -6.9397 YYYY=             -6.9895 ZZZZ=             -5.5357 XXXY=              0.2612
 XXXZ=              0.0000 YYYX=              0.1923 YYYZ=              0.0000 ZZZX=              0.0000
 ZZZY=              0.0000 XXYY=             -1.6280 XXZZ=             -2.4849 YYZZ=             -2.1927
 XXYZ=              0.0000 YYXZ=              0.0000 ZZXY=              0.0430
 N-N= 8.002366485626D+00 E-N=-1.963281442080D+02  KE= 7.553358650637D+01
 Orbital energies and kinetic energies (alpha):
                                 1                 2
   1         O               -20.588876         29.202924
   2         O                -1.294106          2.633071
   3         O                -0.637732          1.595946
   4         O                -0.540504          2.026258
   5         O                -0.496930          2.308594
   6         V                 0.164635          1.098730
   7         V                 0.256781          1.186024
   8         V                 1.002071          2.294976
   9         V                 1.031565          2.728186
  10         V                 1.163173          3.540595
  11         V                 1.233097          3.452275
  12         V                 1.363398          3.756836
  13         V                 1.678103          3.778734
 Total kinetic energy from orbitals= 7.553358650637D+01
 No NMR shielding tensors so no spin-rotation constants.
 Leave Link  601 at Tue Sep 29 11:37:05 2015, MaxMem=    33554432 cpu:               0.1 elap:               0.1
 (Enter /home/gauss/gdvi01p/gdv/l9999.exe)
 Unable to Open any file for archive entry.
 1\1\GINC-MEDUSA\SP\RHF\6-31G\H2O1\DBWY\29-Sep-2015\0\\#p hf/6-31G gfin
 put pop=full nosymm Field=X-100\\Water 6-31G\\0,1\O,0,0.,-0.0757918436
 ,0.\H,0,0.866811829,0.6014357793,0.\H,0,-0.866811829,0.6014357793,0.\\
 Version=ES64L-GDVRevI.01+\HF=-75.9530604\RMSD=5.495e-09\Dipole=0.10629
 68,1.0456987,0.\Quadrupole=1.3302399,-0.0454149,-1.284825,0.1048543,0.
 ,0.\PG=C02V [C2(O1),SGV(H2)]\\@
 The archive entry for this job was punched.


 MYSTERY IS THE WISDOM OF BLOCKHEADS... HORACE WALPOLE 
 Job cpu time:       0 days  0 hours  0 minutes  0.7 seconds.
 Elapsed time:       0 days  0 hours  0 minutes  0.5 seconds.
 File lengths (MBytes):  RWF=      5 Int=      0 D2E=      0 Chk=      1 Scr=      1
 Normal termination of Gaussian DV at Tue Sep 29 11:37:05 2015.
