 Entering Gaussian System, Link 0=gdv
 Input=h2o_sto3g_TD.com
 Output=h2o_sto3g_TD.log
 Initial command:
 /home/gauss/gdvi03p/gdv/l1.exe "/home/GauScr/Gau-15947.inp" -scrdir="/home/GauScr/"
 Entering Link 1 = /home/gauss/gdvi03p/gdv/l1.exe PID=     15950.
  
 Copyright (c) 1988,1990,1992,1993,1995,1998,2003,2009,2015,
            Gaussian, Inc.  All Rights Reserved.
  
 This is the private, development version of
 the Gaussian(R) DV system of programs. It is based on
 the Gaussian(R) 09 system (copyright 2009, Gaussian, Inc.),
 the Gaussian(R) 03 system (copyright 2003, Gaussian, Inc.),
 the Gaussian(R) 98 system (copyright 1998, Gaussian, Inc.),
 the Gaussian(R) 94 system (copyright 1995, Gaussian, Inc.),
 the Gaussian 92(TM) system (copyright 1992, Gaussian, Inc.),
 the Gaussian 90(TM) system (copyright 1990, Gaussian, Inc.),
 the Gaussian 88(TM) system (copyright 1988, Gaussian, Inc.),
 the Gaussian 86(TM) system (copyright 1986, Carnegie Mellon
 University), and the Gaussian 82(TM) system (copyright 1983,
 Carnegie Mellon University). Gaussian is a federally registered
 trademark of Gaussian, Inc.
  
 This software contains proprietary and confidential information,
 including trade secrets, belonging to Gaussian, Inc.
  
 This software is provided under written license and may be
 used, copied, transmitted, or stored only in accord with that
 written license.
  
 The following legend is applicable only to US Government
 contracts under FAR:
  
                    RESTRICTED RIGHTS LEGEND
  
 Use, reproduction and disclosure by the US Government is
 subject to restrictions as set forth in subparagraphs (a)
 and (c) of the Commercial Computer Software - Restricted
 Rights clause in FAR 52.227-19.
  
 Gaussian, Inc.
 340 Quinnipiac St., Bldg. 40, Wallingford CT 06492
  
  
 ---------------------------------------------------------------
 Warning -- This program may not be used in any manner that
 competes with the business of Gaussian, Inc. or will provide
 assistance to any competitor of Gaussian, Inc.  The licensee
 of this program is prohibited from giving any competitor of
 Gaussian, Inc. access to this program.  By using this program,
 the user acknowledges that Gaussian, Inc. is engaged in the
 business of creating and licensing software in the field of
 computational chemistry and represents and warrants to the
 licensee that it is not a competitor of Gaussian, Inc. and that
 it will not use this program in any manner prohibited above.
 ---------------------------------------------------------------
  

 Cite this work as:
 Gaussian Development Version, Revision I.03+,
 M. J. Frisch, G. W. Trucks, H. B. Schlegel, G. E. Scuseria, 
 M. A. Robb, J. R. Cheeseman, G. Scalmani, V. Barone, B. Mennucci, 
 G. A. Petersson, H. Nakatsuji, M. Caricato, X. Li, H. P. Hratchian, 
 J. Bloino, B. G. Janesko, A. F. Izmaylov, A. Marenich, F. Lipparini, 
 G. Zheng, J. L. Sonnenberg, W. Liang, M. Hada, M. Ehara, K. Toyota, 
 R. Fukuda, J. Hasegawa, M. Ishida, T. Nakajima, Y. Honda, O. Kitao, 
 H. Nakai, T. Vreven, K. Throssell, J. A. Montgomery, Jr., 
 J. E. Peralta, F. Ogliaro, M. Bearpark, J. J. Heyd, E. Brothers, 
 K. N. Kudin, V. N. Staroverov, T. Keith, R. Kobayashi, J. Normand, 
 K. Raghavachari, A. Rendell, J. C. Burant, S. S. Iyengar, J. Tomasi, 
 M. Cossi, N. Rega, J. M. Millam, M. Klene, J. E. Knox, J. B. Cross, 
 V. Bakken, C. Adamo, J. Jaramillo, R. Gomperts, R. E. Stratmann, 
 O. Yazyev, A. J. Austin, R. Cammi, C. Pomelli, J. W. Ochterski, 
 R. L. Martin, K. Morokuma, V. G. Zakrzewski, G. A. Voth, 
 P. Salvador, J. J. Dannenberg, S. Dapprich, P. V. Parandekar, 
 N. J. Mayhall, A. D. Daniels, O. Farkas, J. B. Foresman, 
 J. V. Ortiz, J. Cioslowski, and D. J. Fox, 
 Gaussian, Inc., Wallingford CT, 2014.
 
 *******************************************
 Gaussian DV:  ES64L-GDVRevI.03+  2-May-2015
                 28-Oct-2015 
 *******************************************
 %chk=h2o
 %nproc=2
 Will use up to    2 processors via shared memory.
 --------------------------------
 #p hf/sto-3g td(full,nstates=12)
 --------------------------------
 1/38=1,172=1/1;
 2/12=2,17=6,18=5,40=1/2;
 3/6=3,11=9,25=1,30=1/1,2,3,8;
 4//1;
 5/5=2,38=5/2;
 8/6=1,10=90,108=12/1,4;
 9/41=12,42=3,70=2/14;
 6/7=2,8=2,9=2,10=2/1;
 99/5=1,9=1/99;
 Leave Link    1 at Wed Oct 28 10:07:52 2015, MaxMem=           0 cpu:               0.1 elap:               0.0
 (Enter /home/gauss/gdvi03p/gdv/l101.exe)
 --------------
 Water singlets
 --------------
 Symbolic Z-matrix:
 Charge =  0 Multiplicity = 1
 O                     0.       -0.07579   0. 
 H                     0.86681   0.60144   0. 
 H                    -0.86681   0.60144   0. 
 
 ITRead=  0  0  0
 MicOpt= -1 -1 -1
 NAtoms=      3 NQM=        3 NQMF=       0 NMMI=      0 NMMIF=      0
                NMic=       0 NMicF=      0.
                    Isotopes and Nuclear Properties:
 (Nuclear quadrupole moments (NQMom) in fm**2, nuclear magnetic moments (NMagM)
  in nuclear magnetons)

  Atom         1           2           3
 IAtWgt=          16           1           1
 AtmWgt=  15.9949146   1.0078250   1.0078250
 NucSpn=           0           1           1
 AtZEff=   0.0000000   0.0000000   0.0000000
 NQMom=    0.0000000   0.0000000   0.0000000
 NMagM=    0.0000000   2.7928460   2.7928460
 AtZNuc=   8.0000000   1.0000000   1.0000000
 Leave Link  101 at Wed Oct 28 10:07:52 2015, MaxMem=    33554432 cpu:               0.2 elap:               0.1
 (Enter /home/gauss/gdvi03p/gdv/l202.exe)
                          Input orientation:                          
 ---------------------------------------------------------------------
 Center     Atomic      Atomic             Coordinates (Angstroms)
 Number     Number       Type             X           Y           Z
 ---------------------------------------------------------------------
      1          8           0        0.000000   -0.075792    0.000000
      2          1           0        0.866812    0.601436    0.000000
      3          1           0       -0.866812    0.601436    0.000000
 ---------------------------------------------------------------------
                    Distance matrix (angstroms):
                    1          2          3
     1  O    0.000000
     2  H    1.100000   0.000000
     3  H    1.100000   1.733624   0.000000
 Stoichiometry    H2O
 Framework group  C2V[C2(O),SGV(H2)]
 Deg. of freedom     2
 Full point group                 C2V     NOp   4
 Largest Abelian subgroup         C2V     NOp   4
 Largest concise Abelian subgroup C2      NOp   2
                         Standard orientation:                         
 ---------------------------------------------------------------------
 Center     Atomic      Atomic             Coordinates (Angstroms)
 Number     Number       Type             X           Y           Z
 ---------------------------------------------------------------------
      1          8           0        0.000000    0.000000    0.135446
      2          1           0        0.000000    0.866812   -0.541782
      3          1           0        0.000000   -0.866812   -0.541782
 ---------------------------------------------------------------------
 Rotational constants (GHZ):    615.5709784    333.6970768    216.3922350
 Leave Link  202 at Wed Oct 28 10:07:52 2015, MaxMem=    33554432 cpu:               0.0 elap:               0.0
 (Enter /home/gauss/gdvi03p/gdv/l301.exe)
 Standard basis: STO-3G (5D, 7F)
 Ernie: Thresh=  0.10000D-02 Tol=  0.10000D-05 Strict=F.
 There are     4 symmetry adapted cartesian basis functions of A1  symmetry.
 There are     0 symmetry adapted cartesian basis functions of A2  symmetry.
 There are     1 symmetry adapted cartesian basis functions of B1  symmetry.
 There are     2 symmetry adapted cartesian basis functions of B2  symmetry.
 There are     4 symmetry adapted basis functions of A1  symmetry.
 There are     0 symmetry adapted basis functions of A2  symmetry.
 There are     1 symmetry adapted basis functions of B1  symmetry.
 There are     2 symmetry adapted basis functions of B2  symmetry.
     7 basis functions,    21 primitive gaussians,     7 cartesian basis functions
     5 alpha electrons        5 beta electrons
       nuclear repulsion energy         8.0023664856 Hartrees.
 IExCor=    0 DFT=F Ex=HF Corr=None ExCW=0 ScaHFX=  1.000000
 ScaDFX=  1.000000  1.000000  1.000000  1.000000 ScalE2=  1.000000  1.000000
 IRadAn=      0 IRanWt=     -1 IRanGd=            0 ICorTp=0 IEmpDi=  4
 NAtoms=    3 NActive=    3 NUniq=    2 SFac= 2.25D+00 NAtFMM=   60 NAOKFM=F Big=F
 Integral buffers will be    131072 words long.
 Raffenetti 1 integral format.
 Two-electron integral symmetry is turned on.
 Leave Link  301 at Wed Oct 28 10:07:52 2015, MaxMem=    33554432 cpu:               0.1 elap:               0.1
 (Enter /home/gauss/gdvi03p/gdv/l302.exe)
 NPDir=0 NMtPBC=     1 NCelOv=     1 NCel=       1 NClECP=     1 NCelD=      1
         NCelK=      1 NCelE2=     1 NClLst=     1 CellRange=     0.0.
 One-electron integrals computed using PRISM.
 One-electron integral symmetry used in STVInt
 NBasis=     7 RedAO= T EigKep=  4.34D-01  NBF=     4     0     1     2
 NBsUse=     7 1.00D-06 EigRej= -1.00D+00 NBFU=     4     0     1     2
 Leave Link  302 at Wed Oct 28 10:07:52 2015, MaxMem=    33554432 cpu:               0.2 elap:               0.1
 (Enter /home/gauss/gdvi03p/gdv/l303.exe)
 DipDrv:  MaxL=1.
 Leave Link  303 at Wed Oct 28 10:07:52 2015, MaxMem=    33554432 cpu:               0.0 elap:               0.0
 (Enter /home/gauss/gdvi03p/gdv/l308.exe)
 Leave Link  308 at Wed Oct 28 10:07:52 2015, MaxMem=    33554432 cpu:               0.0 elap:               0.0
 (Enter /home/gauss/gdvi03p/gdv/l401.exe)
 ExpMin= 1.69D-01 ExpMax= 1.31D+02 ExpMxC= 1.31D+02 IAcc=1 IRadAn=         1 AccDes= 0.00D+00
 Harris functional with IExCor=  205 and IRadAn=       1 diagonalized for initial guess.
 HarFok:  IExCor=  205 AccDes= 0.00D+00 IRadAn=         1 IDoV= 1 UseB2=F ITyADJ=14
 ICtDFT=  3500011 ScaDFX=  1.000000  1.000000  1.000000  1.000000
 FoFCou: FMM=F IPFlag=           0 FMFlag=      100000 FMFlg1=           0
         NFxFlg=           0 DoJE=T BraDBF=F KetDBF=T FulRan=T
         wScrn=  0.000000 ICntrl=       500 IOpCl=  0 I1Cent=   200000004 NGrid=           0
         NMat0=    1 NMatS0=      1 NMatT0=    0 NMatD0=    1 NMtDS0=    0 NMtDT0=    0
 Petite list used in FoFCou.
 Harris En= -75.0195275106161    
 JPrj=0 DoOrth=F DoCkMO=F.
 Initial guess orbital symmetries:
       Occupied  (A1) (A1) (B2) (A1) (B1)
       Virtual   (A1) (B2)
 The electronic state of the initial guess is 1-A1.
 Leave Link  401 at Wed Oct 28 10:07:52 2015, MaxMem=    33554432 cpu:               0.2 elap:               0.1
 (Enter /home/gauss/gdvi03p/gdv/l502.exe)
 Keep R1 ints in memory in symmetry-blocked form, NReq=803110.
 FoFCou: FMM=F IPFlag=           0 FMFlag=           0 FMFlg1=           0
         NFxFlg=           0 DoJE=F BraDBF=F KetDBF=F FulRan=T
         wScrn=  0.000000 ICntrl=       600 IOpCl=  0 I1Cent=           0 NGrid=           0
         NMat0=    1 NMatS0=     28 NMatT0=    0 NMatD0=    1 NMtDS0=    0 NMtDT0=    0
 Petite list used in FoFCou.
 Closed shell SCF:
 Using DIIS extrapolation, IDIIS=  1040.
 NGot=    33554432 LenX=    33552573 LenY=    33551691
 Requested convergence on RMS density matrix=1.00D-08 within 128 cycles.
 Requested convergence on MAX density matrix=1.00D-06.
 Requested convergence on             energy=1.00D-06.
 No special actions if energy rises.

 Cycle   1  Pass 1  IDiag  1:
 E= -74.8825011391691    
 DIIS: error= 7.55D-02 at cycle   1 NSaved=   1.
 NSaved= 1 IEnMin= 1 EnMin= -74.8825011391691     IErMin= 1 ErrMin= 7.55D-02
 ErrMax= 7.55D-02  0.00D+00 EMaxC= 1.00D-01 BMatC= 3.90D-02 BMatP= 3.90D-02
 IDIUse=3 WtCom= 2.45D-01 WtEn= 7.55D-01
 Coeff-Com:  0.100D+01
 Coeff-En:   0.100D+01
 Coeff:      0.100D+01
 Gap=     0.742 Goal=   None    Shift=    0.000
 GapD=    0.742 DampG=2.000 DampE=0.500 DampFc=1.0000 IDamp=-1.
 RMSDP=4.52D-02 MaxDP=1.56D-01              OVMax= 0.00D+00

 Cycle   2  Pass 1  IDiag  1:
 E= -74.9403161968612     Delta-E=       -0.057815057692 Rises=F Damp=F
 DIIS: error= 1.15D-02 at cycle   2 NSaved=   2.
 NSaved= 2 IEnMin= 2 EnMin= -74.9403161968612     IErMin= 2 ErrMin= 1.15D-02
 ErrMax= 1.15D-02  0.00D+00 EMaxC= 1.00D-01 BMatC= 1.32D-03 BMatP= 3.90D-02
 IDIUse=3 WtCom= 8.85D-01 WtEn= 1.15D-01
 Coeff-Com:  0.142D+00 0.858D+00
 Coeff-En:   0.000D+00 0.100D+01
 Coeff:      0.126D+00 0.874D+00
 Gap=     0.866 Goal=   None    Shift=    0.000
 RMSDP=6.25D-03 MaxDP=2.12D-02 DE=-5.78D-02 OVMax= 0.00D+00

 Cycle   3  Pass 1  IDiag  1:
 E= -74.9420697178213     Delta-E=       -0.001753520960 Rises=F Damp=F
 DIIS: error= 8.69D-04 at cycle   3 NSaved=   3.
 NSaved= 3 IEnMin= 3 EnMin= -74.9420697178213     IErMin= 3 ErrMin= 8.69D-04
 ErrMax= 8.69D-04  0.00D+00 EMaxC= 1.00D-01 BMatC= 5.73D-06 BMatP= 1.32D-03
 IDIUse=3 WtCom= 9.91D-01 WtEn= 8.69D-03
 Coeff-Com: -0.188D-01-0.843D-01 0.110D+01
 Coeff-En:   0.000D+00 0.000D+00 0.100D+01
 Coeff:     -0.186D-01-0.835D-01 0.110D+01
 Gap=     0.865 Goal=   None    Shift=    0.000
 RMSDP=5.97D-04 MaxDP=2.06D-03 DE=-1.75D-03 OVMax= 0.00D+00

 Cycle   4  Pass 1  IDiag  1:
 E= -74.9420796634274     Delta-E=       -0.000009945606 Rises=F Damp=F
 DIIS: error= 1.39D-04 at cycle   4 NSaved=   4.
 NSaved= 4 IEnMin= 4 EnMin= -74.9420796634274     IErMin= 4 ErrMin= 1.39D-04
 ErrMax= 1.39D-04  0.00D+00 EMaxC= 1.00D-01 BMatC= 1.54D-07 BMatP= 5.73D-06
 IDIUse=3 WtCom= 9.99D-01 WtEn= 1.39D-03
 Coeff-Com:  0.205D-02 0.273D-02-0.230D+00 0.123D+01
 Coeff-En:   0.000D+00 0.000D+00 0.000D+00 0.100D+01
 Coeff:      0.204D-02 0.272D-02-0.230D+00 0.122D+01
 Gap=     0.865 Goal=   None    Shift=    0.000
 RMSDP=1.07D-04 MaxDP=4.39D-04 DE=-9.95D-06 OVMax= 0.00D+00

 Cycle   5  Pass 1  IDiag  1:
 E= -74.9420799203146     Delta-E=       -0.000000256887 Rises=F Damp=F
 DIIS: error= 1.02D-05 at cycle   5 NSaved=   5.
 NSaved= 5 IEnMin= 5 EnMin= -74.9420799203146     IErMin= 5 ErrMin= 1.02D-05
 ErrMax= 1.02D-05  0.00D+00 EMaxC= 1.00D-01 BMatC= 1.08D-09 BMatP= 1.54D-07
 IDIUse=1 WtCom= 1.00D+00 WtEn= 0.00D+00
 Coeff-Com: -0.183D-02-0.241D-02 0.211D+00-0.114D+01 0.193D+01
 Coeff:     -0.183D-02-0.241D-02 0.211D+00-0.114D+01 0.193D+01
 Gap=     0.865 Goal=   None    Shift=    0.000
 RMSDP=1.84D-05 MaxDP=6.01D-05 DE=-2.57D-07 OVMax= 0.00D+00

 Cycle   6  Pass 1  IDiag  1:
 E= -74.9420799245087     Delta-E=       -0.000000004194 Rises=F Damp=F
 DIIS: error= 2.47D-07 at cycle   6 NSaved=   6.
 NSaved= 6 IEnMin= 6 EnMin= -74.9420799245087     IErMin= 6 ErrMin= 2.47D-07
 ErrMax= 2.47D-07  0.00D+00 EMaxC= 1.00D-01 BMatC= 5.45D-13 BMatP= 1.08D-09
 IDIUse=1 WtCom= 1.00D+00 WtEn= 0.00D+00
 Coeff-Com: -0.114D-08 0.216D-05 0.575D-03-0.332D-02 0.775D-02 0.995D+00
 Coeff:     -0.114D-08 0.216D-05 0.575D-03-0.332D-02 0.775D-02 0.995D+00
 Gap=     0.865 Goal=   None    Shift=    0.000
 RMSDP=1.51D-07 MaxDP=5.02D-07 DE=-4.19D-09 OVMax= 0.00D+00

 Cycle   7  Pass 1  IDiag  1:
 E= -74.9420799245094     Delta-E=       -0.000000000001 Rises=F Damp=F
 DIIS: error= 2.21D-10 at cycle   7 NSaved=   7.
 NSaved= 7 IEnMin= 7 EnMin= -74.9420799245094     IErMin= 7 ErrMin= 2.21D-10
 ErrMax= 2.21D-10  0.00D+00 EMaxC= 1.00D-01 BMatC= 4.80D-19 BMatP= 5.45D-13
 IDIUse=1 WtCom= 1.00D+00 WtEn= 0.00D+00
 Coeff-Com:  0.812D-11 0.135D-07-0.704D-06 0.315D-05-0.188D-04-0.105D-02
 Coeff-Com:  0.100D+01
 Coeff:      0.812D-11 0.135D-07-0.704D-06 0.315D-05-0.188D-04-0.105D-02
 Coeff:      0.100D+01
 Gap=     0.865 Goal=   None    Shift=    0.000
 RMSDP=2.93D-10 MaxDP=1.07D-09 DE=-7.39D-13 OVMax= 0.00D+00

 SCF Done:  E(RHF) =  -74.9420799245     A.U. after    7 cycles
            NFock=  7  Conv=0.29D-09     -V/T= 2.0082
 KE= 7.433493335452D+01 PE=-1.945344914698D+02 EE= 3.725511170518D+01
 Leave Link  502 at Wed Oct 28 10:07:52 2015, MaxMem=    33554432 cpu:               0.1 elap:               0.1
 (Enter /home/gauss/gdvi03p/gdv/l801.exe)
 Range of M.O.s used for correlation:     1     7
 NBasis=     7 NAE=     5 NBE=     5 NFC=     0 NFV=     0
 NROrb=      7 NOA=     5 NOB=     5 NVA=     2 NVB=     2
 Leave Link  801 at Wed Oct 28 10:07:52 2015, MaxMem=    33554432 cpu:               0.0 elap:               0.0
 (Enter /home/gauss/gdvi03p/gdv/l804.exe)
 Closed-shell transformation, MDV=    33554432 ITran=3 ISComp=1.
 Unit  1 TFree=          3121 TCopy=        115241.
 Semi-Direct transformation.
 ModeAB=           2 MOrb=             5 LenV=      33434697
 LASXX=          265 LTotXX=         265 LenRXX=         265
 LTotAB=         520 MaxLAS=         980 LenRXY=         980
 NonZer=        1190 LenScr=      785920 LnRSAI=           0
 LnScr1=           0 LExtra=           0 Total=       787165
 MaxDsk=          -1 SrtSym=           F ITran=            3
 DoSDTr:  NPSUse=  2
 JobTyp=0 Pass  1:  I=   1 to   5.
 (rs|ai) integrals will be sorted in core.
 Complete sort for first half transformation.
 First half transformation complete.
 Complete sort for second half transformation.
 Second half transformation complete.
 Spin components of T(2) and E(2):
     alpha-alpha T2 =       0.6853786919D-03 E2=     -0.1553110909D-02
     alpha-beta  T2 =       0.2061986403D-01 E2=     -0.4604342350D-01
     beta-beta   T2 =       0.6853786919D-03 E2=     -0.1553110909D-02
 ANorm=    0.1010935518D+01
 E2 =    -0.4914964531D-01 EUMP2 =    -0.74991229569823D+02
 Leave Link  804 at Wed Oct 28 10:07:52 2015, MaxMem=    33554432 cpu:               0.1 elap:               0.0
 (Enter /home/gauss/gdvi03p/gdv/l914.exe)
 RHF ground state
 MDV=    33554432 DFT=F DoStab=F Mixed=F DoRPA=T DoScal=F NonHer=T
 Making orbital integer symmetry assigments:
 Orbital symmetries:
       Occupied  (A1) (A1) (B2) (A1) (B1)
       Virtual   (A1) (B2)
 FoFJK:  IHMeth= 1 ICntrl=       0 DoSepK=F KAlg= 0 I1Cent=           0 FoldK=F
 IRaf=         0 NMat=       1 IRICut=       1 DoRegI=T DoRafI=F ISym2E= 1 IDoP0=0 IntGTp=1.
 FoFCou: FMM=F IPFlag=           0 FMFlag=      100000 FMFlg1=           0
         NFxFlg=           0 DoJE=F BraDBF=F KetDBF=F FulRan=T
         wScrn=  0.000000 ICntrl=         0 IOpCl=  1 I1Cent=           0 NGrid=           0
         NMat0=    1 NMatS0=      1 NMatT0=    0 NMatD0=    1 NMtDS0=    0 NMtDT0=    0
 Petite list used in FoFCou.
    10 initial guesses have been made.
 Convergence on wavefunction:    0.001000000000000
 Davidson Disk Diagonalization:  ConvIn= 1.00D-03 SkipCon=T Conv= 1.00D-03.
 Max sub-space:   200 roots to seek:    12 dimension of matrix:           20
 *** WARNING: Number of orthogonal guesses is           10
 Iteration     1 Dimension    10 NMult     0 NNew     10
 New state      2 was old state      3
 New state      3 was old state      2
 Excitation Energies [eV] at current iteration:
 Root      1 :     9.654006430218217
 Root      2 :    11.301362749883360
 Root      3 :    13.608443440413360
 Root      4 :    15.003590749449190
 Root      5 :    17.694764903103550
 Root      6 :    23.767112020996190
 Root      7 :    34.917791494457260
 Root      8 :    36.020855684953060
 Root      9 :   544.525580904428400
 Root     10 :   545.601648976892500
 Convergence achieved for final wavefunctions.
 ***********************************************************************
 Excited states from <AA,BB:AA,BB> singles matrix:
 ***********************************************************************
 
 1PDM for each excited state written to RWF  633
 Ground to excited state transition densities written to RWF  633
 Ground to excited state transition electric dipole moments (Au):
       state          X           Y           Z        Dip. S.      Osc.
         1         0.0945      0.0000      0.0000      0.0089      0.0021
         2         0.0000      0.0000      0.0000      0.0000      0.0000
         3         0.0000      0.0000     -0.4054      0.1643      0.0548
         4         0.0000     -0.1949      0.0000      0.0380      0.0140
         5         0.0000     -1.5918      0.0000      2.5339      1.0985
         6         0.0000      0.0000     -1.0175      1.0352      0.6028
         7         0.0000      0.0000      0.1603      0.0257      0.0220
         8         0.0000      0.0505      0.0000      0.0025      0.0022
         9         0.0000      0.0000     -0.0648      0.0042      0.0560
        10         0.0000     -0.0790      0.0000      0.0062      0.0833
 Ground to excited state transition velocity dipole moments (Au):
       state          X           Y           Z        Dip. S.      Osc.
         1         0.1370      0.0000      0.0000      0.0188      0.0353
         2         0.0000      0.0000      0.0000      0.0000      0.0000
         3         0.0000      0.0000      0.3374      0.1138      0.1517
         4         0.0000      0.0778      0.0000      0.0060      0.0073
         5         0.0000      0.8109      0.0000      0.6576      0.6742
         6         0.0000      0.0000      0.6375      0.4065      0.3102
         7         0.0000      0.0000     -0.1872      0.0350      0.0182
         8         0.0000     -0.0501      0.0000      0.0025      0.0013
         9         0.0000      0.0000      0.9904      0.9809      0.0327
        10         0.0000      1.2271      0.0000      1.5059      0.0501
 Ground to excited state transition magnetic dipole moments (Au):
       state          X           Y           Z
         1         0.0000     -0.6193      0.0000
         2         0.0000      0.0000      0.7666
         3         0.0000      0.0000      0.0000
         4        -0.8261      0.0000      0.0000
         5        -0.1578      0.0000      0.0000
         6         0.0000      0.0000      0.0000
         7         0.0000      0.0000      0.0000
         8         0.1019      0.0000      0.0000
         9         0.0000      0.0000      0.0000
        10        -0.3135      0.0000      0.0000
 Ground to excited state transition velocity quadrupole moments (Au):
       state          XX          YY          ZZ          XY          XZ          YZ
         1         0.0000      0.0000      0.0000      0.0000     -0.0276      0.0000
         2         0.0000      0.0000      0.0000     -0.0813      0.0000      0.0000
         3        -0.0117     -0.1670     -0.0890      0.0000      0.0000      0.0000
         4         0.0000      0.0000      0.0000      0.0000      0.0000     -0.0025
         5         0.0000      0.0000      0.0000      0.0000      0.0000     -0.6992
         6        -0.1033     -1.2953     -0.4369      0.0000      0.0000      0.0000
         7         0.1767      1.3330      0.8148      0.0000      0.0000      0.0000
         8         0.0000      0.0000      0.0000      0.0000      0.0000      0.7063
         9        -0.1499     -0.1241      0.3728      0.0000      0.0000      0.0000
        10         0.0000      0.0000      0.0000      0.0000      0.0000      0.3369
 <0|del|b> * <b|rxdel|0> + <0|del|b> * <b|delr+rdel|0>
 Rotatory Strengths (R) in cgs (10**-40 erg-esu-cm/Gauss)
       state          XX          YY          ZZ    R(velocity)    E-M Angle
         1         0.0000      0.0000      0.0000      0.0000       90.00
         2         0.0000      0.0000      0.0000      0.0000       90.00
         3         0.0000      0.0000      0.0000      0.0000       90.00
         4         0.0000      0.0000      0.0000      0.0000       90.00
         5         0.0000      0.0000      0.0000      0.0000       90.00
         6         0.0000      0.0000      0.0000      0.0000       90.00
         7         0.0000      0.0000      0.0000      0.0000       90.00
         8         0.0000      0.0000      0.0000      0.0000       90.00
         9         0.0000      0.0000      0.0000      0.0000       90.00
        10         0.0000      0.0000      0.0000      0.0000       90.00
 1/2[<0|r|b>*<b|rxdel|0> + (<0|rxdel|b>*<b|r|0>)*]
 Rotatory Strengths (R) in cgs (10**-40 erg-esu-cm/Gauss)
       state          XX          YY          ZZ     R(length)
         1         0.0000      0.0000      0.0000      0.0000
         2         0.0000      0.0000      0.0000      0.0000
         3         0.0000      0.0000      0.0000      0.0000
         4         0.0000      0.0000      0.0000      0.0000
         5         0.0000      0.0000      0.0000      0.0000
         6         0.0000      0.0000      0.0000      0.0000
         7         0.0000      0.0000      0.0000      0.0000
         8         0.0000      0.0000      0.0000      0.0000
         9         0.0000      0.0000      0.0000      0.0000
        10         0.0000      0.0000      0.0000      0.0000
  1/2[<0|del|b>*<b|r|0> + (<0|r|b>*<b|del|0>)*] (Au)
       state          X           Y           Z        Dip. S.   Osc.(frdel)
         1         0.0130      0.0000      0.0000     -0.0130     -0.0086
         2         0.0000      0.0000      0.0000      0.0000      0.0000
         3         0.0000      0.0000     -0.1368      0.1368      0.0912
         4         0.0000     -0.0152      0.0000      0.0152      0.0101
         5         0.0000     -1.2908      0.0000      1.2908      0.8605
         6         0.0000      0.0000     -0.6487      0.6487      0.4325
         7         0.0000      0.0000     -0.0300      0.0300      0.0200
         8         0.0000     -0.0025      0.0000      0.0025      0.0017
         9         0.0000      0.0000     -0.0642      0.0642      0.0428
        10         0.0000     -0.0969      0.0000      0.0969      0.0646

 Excitation energies and oscillator strengths:
 
 Excited State   1:      Singlet-B1     9.6540 eV  128.43 nm  f=0.0021  <S**2>=0.000
       5 ->  6         0.70795
 This state for optimization and/or second-order correction.
 Total Energy, E(TD-HF/TD-KS) =  -74.5873017161    
 Copying the excited state density for this state as the 1-particle RhoCI density.
 
 Excited State   2:      Singlet-A2    11.3014 eV  109.71 nm  f=0.0000  <S**2>=0.000
       5 ->  7         0.70743
 
 Excited State   3:      Singlet-A1    13.6084 eV   91.11 nm  f=0.0548  <S**2>=0.000
       3 ->  7        -0.21710
       4 ->  6         0.67342
 
 Excited State   4:      Singlet-B2    15.0036 eV   82.64 nm  f=0.0140  <S**2>=0.000
       3 ->  6        -0.39019
       4 ->  7         0.59116
 
 Excited State   5:      Singlet-B2    17.6948 eV   70.07 nm  f=1.0985  <S**2>=0.000
       3 ->  6         0.59062
       4 ->  7         0.39005
 
 Excited State   6:      Singlet-A1    23.7671 eV   52.17 nm  f=0.6028  <S**2>=0.000
       3 ->  7         0.67465
       4 ->  6         0.21916
 
 Excited State   7:      Singlet-A1    34.9178 eV   35.51 nm  f=0.0220  <S**2>=0.000
       2 ->  6         0.70199
 
 Excited State   8:      Singlet-B2    36.0209 eV   34.42 nm  f=0.0022  <S**2>=0.000
       2 ->  7         0.70669
 
 Excited State   9:      Singlet-A1   544.5256 eV    2.28 nm  f=0.0560  <S**2>=0.000
       1 ->  6         0.70711
 
 Excited State  10:      Singlet-B2   545.6016 eV    2.27 nm  f=0.0833  <S**2>=0.000
       1 ->  7         0.70710
 SavETr:  write IOETrn=   770 NScale= 10 NData=  16 NLR=1 NState=   10 LETran=     190.
 Leave Link  914 at Wed Oct 28 10:07:53 2015, MaxMem=    33554432 cpu:               0.1 elap:               0.1
 (Enter /home/gauss/gdvi03p/gdv/l601.exe)
 Copying SCF densities to generalized density rwf, IOpCl= 0 IROHF=0.

 **********************************************************************

            Population analysis using the SCF density.

 **********************************************************************

 Orbital symmetries:
       Occupied  (A1) (A1) (B2) (A1) (B1)
       Virtual   (A1) (B2)
 The electronic state is 1-A1.
 Alpha  occ. eigenvalues --  -20.26289  -1.20970  -0.54796  -0.43653  -0.38759
 Alpha virt. eigenvalues --    0.47762   0.58814
          Condensed to atoms (all electrons):
               1          2          3
     1  O    7.789226   0.231960   0.231960
     2  H    0.231960   0.669053  -0.027586
     3  H    0.231960  -0.027586   0.669053
 Mulliken charges:
               1
     1  O   -0.253146
     2  H    0.126573
     3  H    0.126573
 Sum of Mulliken charges =   0.00000
 Mulliken charges with hydrogens summed into heavy atoms:
               1
     1  O    0.000000
 Electronic spatial extent (au):  <R**2>=             19.8176
 Charge=              0.0000 electrons
 Dipole moment (field-independent basis, Debye):
    X=              0.0000    Y=              0.0000    Z=             -1.5340  Tot=              1.5340
 Quadrupole moment (field-independent basis, Debye-Ang):
   XX=             -6.2076   YY=             -4.3168   ZZ=             -5.3884
   XY=              0.0000   XZ=              0.0000   YZ=              0.0000
 Traceless Quadrupole moment (field-independent basis, Debye-Ang):
   XX=             -0.9033   YY=              0.9875   ZZ=             -0.0842
   XY=              0.0000   XZ=              0.0000   YZ=              0.0000
 Octapole moment (field-independent basis, Debye-Ang**2):
  XXX=              0.0000  YYY=              0.0000  ZZZ=              0.0092  XYY=              0.0000
  XXY=              0.0000  XXZ=              0.0773  XZZ=              0.0000  YZZ=              0.0000
  YYZ=             -0.6491  XYZ=              0.0000
 Hexadecapole moment (field-independent basis, Debye-Ang**3):
 XXXX=             -3.3591 YYYY=             -7.9263 ZZZZ=             -5.7191 XXXY=              0.0000
 XXXZ=              0.0000 YYYX=              0.0000 YYYZ=              0.0000 ZZZX=              0.0000
 ZZZY=              0.0000 XXYY=             -2.1047 XXZZ=             -1.5644 YYZZ=             -1.9659
 XXYZ=              0.0000 YYXZ=              0.0000 ZZXY=              0.0000
 N-N= 8.002366485626D+00 E-N=-1.945344914650D+02  KE= 7.433493335452D+01
 Symmetry A1   KE= 6.646146651210D+01
 Symmetry A2   KE= 0.000000000000D+00
 Symmetry B1   KE= 5.057462452019D+00
 Symmetry B2   KE= 2.816004390402D+00
 Leave Link  601 at Wed Oct 28 10:07:53 2015, MaxMem=    33554432 cpu:               0.0 elap:               0.0
 (Enter /home/gauss/gdvi03p/gdv/l9999.exe)
 Unable to Open any file for archive entry.
 1\1\GINC-MEDUSA\SP\RTD-Full\STO-3G\H2O1\PLESTRAN\28-Oct-2015\0\\#p hf/
 sto-3g td(full,nstates=12)\\Water singlets\\0,1\O,0,0.,-0.0757918436,0
 .\H,0,0.866811829,0.6014357793,0.\H,0,-0.866811829,0.6014357793,0.\\Ve
 rsion=ES64L-GDVRevI.03+\State=1-A1\HF=-74.9420799\MP2=-74.9912296\EFC=
 0.\RMSD=2.935e-10\PG=C02V [C2(O1),SGV(H2)]\\@
 The archive entry for this job was punched.


 IF THE FACTS DO NOT CONFORM TO THE THEORY, THEY MUST BE DISPOSED OF.
 Job cpu time:       0 days  0 hours  0 minutes  1.5 seconds.
 Elapsed time:       0 days  0 hours  0 minutes  0.6 seconds.
 File lengths (MBytes):  RWF=     12 Int=      0 D2E=      0 Chk=      1 Scr=      1
 Normal termination of Gaussian DV at Wed Oct 28 10:07:53 2015.
 Initial command:
 /home/gauss/gdvi03p/gdv/l1.exe "/home/GauScr/Gau-15947.inp" -scrdir="/home/GauScr/"
 Entering Link 1 = /home/gauss/gdvi03p/gdv/l1.exe PID=     16167.
  
 Copyright (c) 1988,1990,1992,1993,1995,1998,2003,2009,2015,
            Gaussian, Inc.  All Rights Reserved.
  
 This is the private, development version of
 the Gaussian(R) DV system of programs. It is based on
 the Gaussian(R) 09 system (copyright 2009, Gaussian, Inc.),
 the Gaussian(R) 03 system (copyright 2003, Gaussian, Inc.),
 the Gaussian(R) 98 system (copyright 1998, Gaussian, Inc.),
 the Gaussian(R) 94 system (copyright 1995, Gaussian, Inc.),
 the Gaussian 92(TM) system (copyright 1992, Gaussian, Inc.),
 the Gaussian 90(TM) system (copyright 1990, Gaussian, Inc.),
 the Gaussian 88(TM) system (copyright 1988, Gaussian, Inc.),
 the Gaussian 86(TM) system (copyright 1986, Carnegie Mellon
 University), and the Gaussian 82(TM) system (copyright 1983,
 Carnegie Mellon University). Gaussian is a federally registered
 trademark of Gaussian, Inc.
  
 This software contains proprietary and confidential information,
 including trade secrets, belonging to Gaussian, Inc.
  
 This software is provided under written license and may be
 used, copied, transmitted, or stored only in accord with that
 written license.
  
 The following legend is applicable only to US Government
 contracts under FAR:
  
                    RESTRICTED RIGHTS LEGEND
  
 Use, reproduction and disclosure by the US Government is
 subject to restrictions as set forth in subparagraphs (a)
 and (c) of the Commercial Computer Software - Restricted
 Rights clause in FAR 52.227-19.
  
 Gaussian, Inc.
 340 Quinnipiac St., Bldg. 40, Wallingford CT 06492
  
  
 ---------------------------------------------------------------
 Warning -- This program may not be used in any manner that
 competes with the business of Gaussian, Inc. or will provide
 assistance to any competitor of Gaussian, Inc.  The licensee
 of this program is prohibited from giving any competitor of
 Gaussian, Inc. access to this program.  By using this program,
 the user acknowledges that Gaussian, Inc. is engaged in the
 business of creating and licensing software in the field of
 computational chemistry and represents and warrants to the
 licensee that it is not a competitor of Gaussian, Inc. and that
 it will not use this program in any manner prohibited above.
 ---------------------------------------------------------------
  

 Cite this work as:
 Gaussian Development Version, Revision I.03+,
 M. J. Frisch, G. W. Trucks, H. B. Schlegel, G. E. Scuseria, 
 M. A. Robb, J. R. Cheeseman, G. Scalmani, V. Barone, B. Mennucci, 
 G. A. Petersson, H. Nakatsuji, M. Caricato, X. Li, H. P. Hratchian, 
 J. Bloino, B. G. Janesko, A. F. Izmaylov, A. Marenich, F. Lipparini, 
 G. Zheng, J. L. Sonnenberg, W. Liang, M. Hada, M. Ehara, K. Toyota, 
 R. Fukuda, J. Hasegawa, M. Ishida, T. Nakajima, Y. Honda, O. Kitao, 
 H. Nakai, T. Vreven, K. Throssell, J. A. Montgomery, Jr., 
 J. E. Peralta, F. Ogliaro, M. Bearpark, J. J. Heyd, E. Brothers, 
 K. N. Kudin, V. N. Staroverov, T. Keith, R. Kobayashi, J. Normand, 
 K. Raghavachari, A. Rendell, J. C. Burant, S. S. Iyengar, J. Tomasi, 
 M. Cossi, N. Rega, J. M. Millam, M. Klene, J. E. Knox, J. B. Cross, 
 V. Bakken, C. Adamo, J. Jaramillo, R. Gomperts, R. E. Stratmann, 
 O. Yazyev, A. J. Austin, R. Cammi, C. Pomelli, J. W. Ochterski, 
 R. L. Martin, K. Morokuma, V. G. Zakrzewski, G. A. Voth, 
 P. Salvador, J. J. Dannenberg, S. Dapprich, P. V. Parandekar, 
 N. J. Mayhall, A. D. Daniels, O. Farkas, J. B. Foresman, 
 J. V. Ortiz, J. Cioslowski, and D. J. Fox, 
 Gaussian, Inc., Wallingford CT, 2014.
 
 *******************************************
 Gaussian DV:  ES64L-GDVRevI.03+  2-May-2015
                 28-Oct-2015 
 *******************************************
 %chk=h2o
 %nproc=2
 Will use up to    2 processors via shared memory.
 --------------------------------------------------------------
 #p hf/sto-3g geom=check guess=read td(full,nstates=12,triplet)
 --------------------------------------------------------------
 1/29=2,38=1,172=1/1;
 2/12=2,40=1/2;
 3/6=3,11=9,14=-4,25=1,30=1,116=-2/1,2,3,8;
 4/5=1/1;
 5/5=2,38=6/2;
 8/6=1,10=90,108=12/1,4;
 9/41=12,42=3,48=3,70=2/14;
 6/7=2,8=2,9=2,10=2/1;
 99/5=1,9=1/99;
 Leave Link    1 at Wed Oct 28 10:07:53 2015, MaxMem=           0 cpu:               0.1 elap:               0.0
 (Enter /home/gauss/gdvi03p/gdv/l101.exe)
 --------------
 Water triplets
 --------------
 Structure from the checkpoint file:  "h2o.chk"
 Charge =  0 Multiplicity = 1
 Z-Matrix found in chk file.
 O,0,0.,-0.0757918436,0.
 H,0,0.866811829,0.6014357793,0.
 H,0,-0.866811829,0.6014357793,0.
 Recover connectivity data from disk.
 ITRead=  0  0  0
 MicOpt= -1 -1 -1
 NAtoms=      3 NQM=        3 NQMF=       0 NMMI=      0 NMMIF=      0
                NMic=       0 NMicF=      0.
                    Isotopes and Nuclear Properties:
 (Nuclear quadrupole moments (NQMom) in fm**2, nuclear magnetic moments (NMagM)
  in nuclear magnetons)

  Atom         1           2           3
 IAtWgt=          16           1           1
 AtmWgt=  15.9949146   1.0078250   1.0078250
 NucSpn=           0           1           1
 AtZEff=   5.6000000   1.0000000   1.0000000
 NQMom=    0.0000000   0.0000000   0.0000000
 NMagM=    0.0000000   2.7928460   2.7928460
 AtZNuc=   8.0000000   1.0000000   1.0000000
 Leave Link  101 at Wed Oct 28 10:07:53 2015, MaxMem=    33554432 cpu:               0.2 elap:               0.1
 (Enter /home/gauss/gdvi03p/gdv/l202.exe)
                          Input orientation:                          
 ---------------------------------------------------------------------
 Center     Atomic      Atomic             Coordinates (Angstroms)
 Number     Number       Type             X           Y           Z
 ---------------------------------------------------------------------
      1          8           0        0.000000   -0.075792    0.000000
      2          1           0        0.866812    0.601436    0.000000
      3          1           0       -0.866812    0.601436    0.000000
 ---------------------------------------------------------------------
                    Distance matrix (angstroms):
                    1          2          3
     1  O    0.000000
     2  H    1.100000   0.000000
     3  H    1.100000   1.733624   0.000000
 Stoichiometry    H2O
 Framework group  C2V[C2(O),SGV(H2)]
 Deg. of freedom     2
 Full point group                 C2V     NOp   4
 RotChk:  IX=0 Diff= 8.24D-16
 Largest Abelian subgroup         C2V     NOp   4
 Largest concise Abelian subgroup C2      NOp   2
                         Standard orientation:                         
 ---------------------------------------------------------------------
 Center     Atomic      Atomic             Coordinates (Angstroms)
 Number     Number       Type             X           Y           Z
 ---------------------------------------------------------------------
      1          8           0        0.000000    0.000000    0.135446
      2          1           0        0.000000    0.866812   -0.541782
      3          1           0        0.000000   -0.866812   -0.541782
 ---------------------------------------------------------------------
 Rotational constants (GHZ):    615.5709784    333.6970768    216.3922350
 Leave Link  202 at Wed Oct 28 10:07:53 2015, MaxMem=    33554432 cpu:               0.0 elap:               0.0
 (Enter /home/gauss/gdvi03p/gdv/l301.exe)
 Standard basis: STO-3G (5D, 7F)
 Ernie: Thresh=  0.10000D-02 Tol=  0.10000D-05 Strict=F.
 There are     4 symmetry adapted cartesian basis functions of A1  symmetry.
 There are     0 symmetry adapted cartesian basis functions of A2  symmetry.
 There are     1 symmetry adapted cartesian basis functions of B1  symmetry.
 There are     2 symmetry adapted cartesian basis functions of B2  symmetry.
 There are     4 symmetry adapted basis functions of A1  symmetry.
 There are     0 symmetry adapted basis functions of A2  symmetry.
 There are     1 symmetry adapted basis functions of B1  symmetry.
 There are     2 symmetry adapted basis functions of B2  symmetry.
     7 basis functions,    21 primitive gaussians,     7 cartesian basis functions
     5 alpha electrons        5 beta electrons
       nuclear repulsion energy         8.0023664856 Hartrees.
 IExCor=    0 DFT=F Ex=HF Corr=None ExCW=0 ScaHFX=  1.000000
 ScaDFX=  1.000000  1.000000  1.000000  1.000000 ScalE2=  1.000000  1.000000
 IRadAn=      0 IRanWt=     -1 IRanGd=            0 ICorTp=0 IEmpDi=  4
 NAtoms=    3 NActive=    3 NUniq=    2 SFac= 2.25D+00 NAtFMM=   60 NAOKFM=F Big=F
 Integral buffers will be    131072 words long.
 Raffenetti 1 integral format.
 Two-electron integral symmetry is turned on.
 Leave Link  301 at Wed Oct 28 10:07:53 2015, MaxMem=    33554432 cpu:               0.1 elap:               0.1
 (Enter /home/gauss/gdvi03p/gdv/l302.exe)
 NPDir=0 NMtPBC=     1 NCelOv=     1 NCel=       1 NClECP=     1 NCelD=      1
         NCelK=      1 NCelE2=     1 NClLst=     1 CellRange=     0.0.
 One-electron integrals computed using PRISM.
 One-electron integral symmetry used in STVInt
 NBasis=     7 RedAO= T EigKep=  4.34D-01  NBF=     4     0     1     2
 NBsUse=     7 1.00D-06 EigRej= -1.00D+00 NBFU=     4     0     1     2
 Leave Link  302 at Wed Oct 28 10:07:53 2015, MaxMem=    33554432 cpu:               0.2 elap:               0.1
 (Enter /home/gauss/gdvi03p/gdv/l303.exe)
 DipDrv:  MaxL=1.
 Leave Link  303 at Wed Oct 28 10:07:53 2015, MaxMem=    33554432 cpu:               0.0 elap:               0.0
 (Enter /home/gauss/gdvi03p/gdv/l308.exe)
 Leave Link  308 at Wed Oct 28 10:07:53 2015, MaxMem=    33554432 cpu:               0.0 elap:               0.0
 (Enter /home/gauss/gdvi03p/gdv/l401.exe)
 Initial guess from the checkpoint file:  "h2o.chk"
 B after Tr=     0.000000    0.000000    0.000000
         Rot=    1.000000    0.000000    0.000000    0.000000 Ang=   0.00 deg.
 Guess basis will be translated and rotated to current coordinates.
 JPrj=2 DoOrth=T DoCkMO=T.
 Initial guess orbital symmetries:
       Occupied  (A1) (A1) (B2) (A1) (B1)
       Virtual   (A1) (B2)
 The electronic state of the initial guess is 1-A1.
 Leave Link  401 at Wed Oct 28 10:07:53 2015, MaxMem=    33554432 cpu:               0.2 elap:               0.1
 (Enter /home/gauss/gdvi03p/gdv/l502.exe)
 Keep R1 ints in memory in symmetry-blocked form, NReq=803110.
 FoFCou: FMM=F IPFlag=           0 FMFlag=           0 FMFlg1=           0
         NFxFlg=           0 DoJE=F BraDBF=F KetDBF=F FulRan=T
         wScrn=  0.000000 ICntrl=       600 IOpCl=  0 I1Cent=           0 NGrid=           0
         NMat0=    1 NMatS0=     28 NMatT0=    0 NMatD0=    1 NMtDS0=    0 NMtDT0=    0
 Petite list used in FoFCou.
 Closed shell SCF:
 Using DIIS extrapolation, IDIIS=  1040.
 NGot=    33554432 LenX=    33552573 LenY=    33551691
 Requested convergence on RMS density matrix=1.00D-08 within 128 cycles.
 Requested convergence on MAX density matrix=1.00D-06.
 Requested convergence on             energy=1.00D-06.
 No special actions if energy rises.

 Cycle   1  Pass 1  IDiag  1:
 E= -74.9420799245094    
 DIIS: error= 3.06D-13 at cycle   1 NSaved=   1.
 NSaved= 1 IEnMin= 1 EnMin= -74.9420799245094     IErMin= 1 ErrMin= 3.06D-13
 ErrMax= 3.06D-13  0.00D+00 EMaxC= 1.00D-01 BMatC= 9.14D-25 BMatP= 9.14D-25
 IDIUse=1 WtCom= 1.00D+00 WtEn= 0.00D+00
 Coeff-Com:  0.100D+01
 Coeff:      0.100D+01
 Gap=     0.865 Goal=   None    Shift=    0.000
 Skip diagonalization as Alpha Fock matrix is already diagonal.
 RMSDP=0.00D+00 MaxDP=0.00D+00              OVMax= 0.00D+00

 SCF Done:  E(RHF) =  -74.9420799245     A.U. after    1 cycles
            NFock=  1  Conv=0.00D+00     -V/T= 2.0082
 KE= 7.433493335452D+01 PE=-1.945344914650D+02 EE= 3.725511170036D+01
 Leave Link  502 at Wed Oct 28 10:07:53 2015, MaxMem=    33554432 cpu:               0.1 elap:               0.1
 (Enter /home/gauss/gdvi03p/gdv/l801.exe)
 Range of M.O.s used for correlation:     1     7
 NBasis=     7 NAE=     5 NBE=     5 NFC=     0 NFV=     0
 NROrb=      7 NOA=     5 NOB=     5 NVA=     2 NVB=     2
 Leave Link  801 at Wed Oct 28 10:07:53 2015, MaxMem=    33554432 cpu:               0.0 elap:               0.0
 (Enter /home/gauss/gdvi03p/gdv/l804.exe)
 Closed-shell transformation, MDV=    33554432 ITran=3 ISComp=1.
 Unit  1 TFree=          3123 TCopy=        115241.
 Semi-Direct transformation.
 ModeAB=           2 MOrb=             5 LenV=      33434697
 LASXX=          265 LTotXX=         265 LenRXX=         265
 LTotAB=         520 MaxLAS=         980 LenRXY=         980
 NonZer=        1190 LenScr=      785920 LnRSAI=           0
 LnScr1=           0 LExtra=           0 Total=       787165
 MaxDsk=          -1 SrtSym=           F ITran=            3
 DoSDTr:  NPSUse=  2
 JobTyp=0 Pass  1:  I=   1 to   5.
 (rs|ai) integrals will be sorted in core.
 Complete sort for first half transformation.
 First half transformation complete.
 Complete sort for second half transformation.
 Second half transformation complete.
 Spin components of T(2) and E(2):
     alpha-alpha T2 =       0.6853786919D-03 E2=     -0.1553110909D-02
     alpha-beta  T2 =       0.2061986403D-01 E2=     -0.4604342349D-01
     beta-beta   T2 =       0.6853786919D-03 E2=     -0.1553110909D-02
 ANorm=    0.1010935518D+01
 E2 =    -0.4914964531D-01 EUMP2 =    -0.74991229569823D+02
 Leave Link  804 at Wed Oct 28 10:07:53 2015, MaxMem=    33554432 cpu:               0.1 elap:               0.0
 (Enter /home/gauss/gdvi03p/gdv/l914.exe)
 RHF ground state
 MDV=    33554432 DFT=F DoStab=F Mixed=F DoRPA=T DoScal=F NonHer=T
 Making orbital integer symmetry assigments:
 Orbital symmetries:
       Occupied  (A1) (A1) (B2) (A1) (B1)
       Virtual   (A1) (B2)
 FoFJK:  IHMeth= 1 ICntrl=       0 DoSepK=F KAlg= 0 I1Cent=           0 FoldK=F
 IRaf=         0 NMat=       1 IRICut=       1 DoRegI=T DoRafI=F ISym2E= 1 IDoP0=0 IntGTp=1.
 FoFCou: FMM=F IPFlag=           0 FMFlag=      100000 FMFlg1=           0
         NFxFlg=           0 DoJE=F BraDBF=F KetDBF=F FulRan=T
         wScrn=  0.000000 ICntrl=         0 IOpCl=  1 I1Cent=           0 NGrid=           0
         NMat0=    1 NMatS0=      1 NMatT0=    0 NMatD0=    1 NMtDS0=    0 NMtDT0=    0
 Petite list used in FoFCou.
    10 initial guesses have been made.
 Convergence on wavefunction:    0.001000000000000
 Davidson Disk Diagonalization:  ConvIn= 1.00D-03 SkipCon=T Conv= 1.00D-03.
 Max sub-space:   200 roots to seek:    12 dimension of matrix:           20
 *** WARNING: Number of orthogonal guesses is           10
 Iteration     1 Dimension    10 NMult     0 NNew     10
 New state      3 was old state      4
 New state      4 was old state      3
 Excitation Energies [eV] at current iteration:
 Root      1 :     7.759698597619504
 Root      2 :     8.156431991171015
 Root      3 :     9.595457335349346
 Root      4 :     9.935727172139883
 Root      5 :    13.895792703783660
 Root      6 :    14.859370658605390
 Root      7 :    30.036435942719940
 Root      8 :    32.539019631655730
 Root      9 :   543.098531762360600
 Root     10 :   544.535384899973300
 Convergence achieved for final wavefunctions.
 ***********************************************************************
 Excited states from <AA,BB:AA,BB> singles matrix:
 ***********************************************************************
 
 1PDM for each excited state written to RWF  633
 Ground to excited state transition densities written to RWF  633
 Ground to excited state transition electric dipole moments (Au):
       state          X           Y           Z        Dip. S.      Osc.
         1         0.0000      0.0000      0.0000      0.0000      0.0000
         2         0.0000      0.0000      0.0000      0.0000      0.0000
         3         0.0000      0.0000      0.0000      0.0000      0.0000
         4         0.0000      0.0000      0.0000      0.0000      0.0000
         5         0.0000      0.0000      0.0000      0.0000      0.0000
         6         0.0000      0.0000      0.0000      0.0000      0.0000
         7         0.0000      0.0000      0.0000      0.0000      0.0000
         8         0.0000      0.0000      0.0000      0.0000      0.0000
         9         0.0000      0.0000      0.0000      0.0000      0.0000
        10         0.0000      0.0000      0.0000      0.0000      0.0000
 Ground to excited state transition velocity dipole moments (Au):
       state          X           Y           Z        Dip. S.      Osc.
         1         0.0000      0.0000      0.0000      0.0000      0.0000
         2         0.0000      0.0000      0.0000      0.0000      0.0000
         3         0.0000      0.0000      0.0000      0.0000      0.0000
         4         0.0000      0.0000      0.0000      0.0000      0.0000
         5         0.0000      0.0000      0.0000      0.0000      0.0000
         6         0.0000      0.0000      0.0000      0.0000      0.0000
         7         0.0000      0.0000      0.0000      0.0000      0.0000
         8         0.0000      0.0000      0.0000      0.0000      0.0000
         9         0.0000      0.0000      0.0000      0.0000      0.0000
        10         0.0000      0.0000      0.0000      0.0000      0.0000
 Ground to excited state transition magnetic dipole moments (Au):
       state          X           Y           Z
         1         0.0000      0.0000      0.0000
         2         0.0000      0.0000      0.0000
         3         0.0000      0.0000      0.0000
         4         0.0000      0.0000      0.0000
         5         0.0000      0.0000      0.0000
         6         0.0000      0.0000      0.0000
         7         0.0000      0.0000      0.0000
         8         0.0000      0.0000      0.0000
         9         0.0000      0.0000      0.0000
        10         0.0000      0.0000      0.0000
 Ground to excited state transition velocity quadrupole moments (Au):
       state          XX          YY          ZZ          XY          XZ          YZ
         1         0.0000      0.0000      0.0000      0.0000      0.0000      0.0000
         2         0.0000      0.0000      0.0000      0.0000      0.0000      0.0000
         3         0.0000      0.0000      0.0000      0.0000      0.0000      0.0000
         4         0.0000      0.0000      0.0000      0.0000      0.0000      0.0000
         5         0.0000      0.0000      0.0000      0.0000      0.0000      0.0000
         6         0.0000      0.0000      0.0000      0.0000      0.0000      0.0000
         7         0.0000      0.0000      0.0000      0.0000      0.0000      0.0000
         8         0.0000      0.0000      0.0000      0.0000      0.0000      0.0000
         9         0.0000      0.0000      0.0000      0.0000      0.0000      0.0000
        10         0.0000      0.0000      0.0000      0.0000      0.0000      0.0000
 <0|del|b> * <b|rxdel|0> + <0|del|b> * <b|delr+rdel|0>
 Rotatory Strengths (R) in cgs (10**-40 erg-esu-cm/Gauss)
       state          XX          YY          ZZ    R(velocity)    E-M Angle
         1         0.0000      0.0000      0.0000      0.0000       90.00
         2         0.0000      0.0000      0.0000      0.0000       90.00
         3         0.0000      0.0000      0.0000      0.0000       90.00
         4         0.0000      0.0000      0.0000      0.0000       90.00
         5         0.0000      0.0000      0.0000      0.0000       90.00
         6         0.0000      0.0000      0.0000      0.0000       90.00
         7         0.0000      0.0000      0.0000      0.0000       90.00
         8         0.0000      0.0000      0.0000      0.0000       90.00
         9         0.0000      0.0000      0.0000      0.0000       90.00
        10         0.0000      0.0000      0.0000      0.0000       90.00
 1/2[<0|r|b>*<b|rxdel|0> + (<0|rxdel|b>*<b|r|0>)*]
 Rotatory Strengths (R) in cgs (10**-40 erg-esu-cm/Gauss)
       state          XX          YY          ZZ     R(length)
         1         0.0000      0.0000      0.0000      0.0000
         2         0.0000      0.0000      0.0000      0.0000
         3         0.0000      0.0000      0.0000      0.0000
         4         0.0000      0.0000      0.0000      0.0000
         5         0.0000      0.0000      0.0000      0.0000
         6         0.0000      0.0000      0.0000      0.0000
         7         0.0000      0.0000      0.0000      0.0000
         8         0.0000      0.0000      0.0000      0.0000
         9         0.0000      0.0000      0.0000      0.0000
        10         0.0000      0.0000      0.0000      0.0000
  1/2[<0|del|b>*<b|r|0> + (<0|r|b>*<b|del|0>)*] (Au)
       state          X           Y           Z        Dip. S.   Osc.(frdel)
         1         0.0000      0.0000      0.0000      0.0000      0.0000
         2         0.0000      0.0000      0.0000      0.0000      0.0000
         3         0.0000      0.0000      0.0000      0.0000      0.0000
         4         0.0000      0.0000      0.0000      0.0000      0.0000
         5         0.0000      0.0000      0.0000      0.0000      0.0000
         6         0.0000      0.0000      0.0000      0.0000      0.0000
         7         0.0000      0.0000      0.0000      0.0000      0.0000
         8         0.0000      0.0000      0.0000      0.0000      0.0000
         9         0.0000      0.0000      0.0000      0.0000      0.0000
        10         0.0000      0.0000      0.0000      0.0000      0.0000

 Excitation energies and oscillator strengths:
 
 Excited State   1:      Triplet-B1     7.7597 eV  159.78 nm  f=0.0000  <S**2>=2.000
       5 ->  6         0.70840
 This state for optimization and/or second-order correction.
 Total Energy, E(TD-HF/TD-KS) =  -74.6569162480    
 Copying the excited state density for this state as the 1-particle RhoCI density.
 
 Excited State   2:      Triplet-A1     8.1564 eV  152.01 nm  f=0.0000  <S**2>=2.000
       3 ->  7         0.30429
       4 ->  6         0.65977
       3 <-  7         0.11794
       4 <-  6         0.14200
 
 Excited State   3:      Triplet-B2     9.5955 eV  129.21 nm  f=0.0000  <S**2>=2.000
       3 ->  6         0.48694
       4 ->  7         0.53872
       3 <-  6         0.12421
       4 <-  7         0.11700
 
 Excited State   4:      Triplet-A2     9.9357 eV  124.79 nm  f=0.0000  <S**2>=2.000
       5 ->  7         0.70752
 
 Excited State   5:      Triplet-B2    13.8958 eV   89.22 nm  f=0.0000  <S**2>=2.000
       3 ->  6         0.52061
       4 ->  7        -0.47265
 
 Excited State   6:      Triplet-A1    14.8594 eV   83.44 nm  f=0.0000  <S**2>=2.000
       3 ->  7         0.64519
       4 ->  6        -0.28978
 
 Excited State   7:      Triplet-A1    30.0364 eV   41.28 nm  f=0.0000  <S**2>=2.000
       2 ->  6         0.69818
       3 ->  7         0.10981
 
 Excited State   8:      Triplet-B2    32.5390 eV   38.10 nm  f=0.0000  <S**2>=2.000
       2 ->  7         0.70191
 
 Excited State   9:      Triplet-A1   543.0985 eV    2.28 nm  f=0.0000  <S**2>=2.000
       1 ->  6         0.70711
 
 Excited State  10:      Triplet-B2   544.5354 eV    2.28 nm  f=0.0000  <S**2>=2.000
       1 ->  7         0.70711
 SavETr:  write IOETrn=   770 NScale= 10 NData=  16 NLR=1 NState=   10 LETran=     190.
 Leave Link  914 at Wed Oct 28 10:07:54 2015, MaxMem=    33554432 cpu:               0.1 elap:               0.1
 (Enter /home/gauss/gdvi03p/gdv/l601.exe)
 Copying SCF densities to generalized density rwf, IOpCl= 0 IROHF=0.

 **********************************************************************

            Population analysis using the SCF density.

 **********************************************************************

 Orbital symmetries:
       Occupied  (A1) (A1) (B2) (A1) (B1)
       Virtual   (A1) (B2)
 The electronic state is 1-A1.
 Alpha  occ. eigenvalues --  -20.26289  -1.20970  -0.54796  -0.43653  -0.38759
 Alpha virt. eigenvalues --    0.47762   0.58814
          Condensed to atoms (all electrons):
               1          2          3
     1  O    7.789226   0.231960   0.231960
     2  H    0.231960   0.669053  -0.027586
     3  H    0.231960  -0.027586   0.669053
 Mulliken charges:
               1
     1  O   -0.253146
     2  H    0.126573
     3  H    0.126573
 Sum of Mulliken charges =   0.00000
 Mulliken charges with hydrogens summed into heavy atoms:
               1
     1  O    0.000000
 Electronic spatial extent (au):  <R**2>=             19.8176
 Charge=              0.0000 electrons
 Dipole moment (field-independent basis, Debye):
    X=              0.0000    Y=              0.0000    Z=             -1.5340  Tot=              1.5340
 Quadrupole moment (field-independent basis, Debye-Ang):
   XX=             -6.2076   YY=             -4.3168   ZZ=             -5.3884
   XY=              0.0000   XZ=              0.0000   YZ=              0.0000
 Traceless Quadrupole moment (field-independent basis, Debye-Ang):
   XX=             -0.9033   YY=              0.9875   ZZ=             -0.0842
   XY=              0.0000   XZ=              0.0000   YZ=              0.0000
 Octapole moment (field-independent basis, Debye-Ang**2):
  XXX=              0.0000  YYY=              0.0000  ZZZ=              0.0092  XYY=              0.0000
  XXY=              0.0000  XXZ=              0.0773  XZZ=              0.0000  YZZ=              0.0000
  YYZ=             -0.6491  XYZ=              0.0000
 Hexadecapole moment (field-independent basis, Debye-Ang**3):
 XXXX=             -3.3591 YYYY=             -7.9263 ZZZZ=             -5.7191 XXXY=              0.0000
 XXXZ=              0.0000 YYYX=              0.0000 YYYZ=              0.0000 ZZZX=              0.0000
 ZZZY=              0.0000 XXYY=             -2.1047 XXZZ=             -1.5644 YYZZ=             -1.9659
 XXYZ=              0.0000 YYXZ=              0.0000 ZZXY=              0.0000
 N-N= 8.002366485626D+00 E-N=-1.945344914650D+02  KE= 7.433493335452D+01
 Symmetry A1   KE= 6.646146651210D+01
 Symmetry A2   KE= 0.000000000000D+00
 Symmetry B1   KE= 5.057462452019D+00
 Symmetry B2   KE= 2.816004390402D+00
 Leave Link  601 at Wed Oct 28 10:07:54 2015, MaxMem=    33554432 cpu:               0.0 elap:               0.0
 (Enter /home/gauss/gdvi03p/gdv/l9999.exe)
 Unable to Open any file for archive entry.
 1\1\GINC-MEDUSA\SP\RTD-Full\STO-3G\H2O1\PLESTRAN\28-Oct-2015\0\\#p hf/
 sto-3g geom=check guess=read td(full,nstates=12,triplet)\\Water triple
 ts\\0,1\O,0,0.,-0.0757918436,0.\H,0,0.866811829,0.6014357793,0.\H,0,-0
 .866811829,0.6014357793,0.\\Version=ES64L-GDVRevI.03+\State=1-A1\HF=-7
 4.9420799\MP2=-74.9912296\EFC=0.\RMSD=0.000e+00\PG=C02V [C2(O1),SGV(H2
 )]\\@
 The archive entry for this job was punched.


 "MATHEMATICS IS THE ART OF GIVING THE SAME NAME
 TO DIFFERENT THINGS."
                    - H. POINCARE
 Job cpu time:       0 days  0 hours  0 minutes  1.5 seconds.
 Elapsed time:       0 days  0 hours  0 minutes  0.6 seconds.
 File lengths (MBytes):  RWF=     12 Int=      0 D2E=      0 Chk=      1 Scr=      1
 Normal termination of Gaussian DV at Wed Oct 28 10:07:54 2015.
