 Entering Gaussian System, Link 0=gdv
 Input=h2o_ccpVDZ.com
 Output=h2o_ccpVDZ.log
 Initial command:
 /home/gauss/gdvi01p/gdv/l1.exe "/home/GauScr/Gau-32702.inp" -scrdir="/home/GauScr/"
 Entering Link 1 = /home/gauss/gdvi01p/gdv/l1.exe PID=     32703.
  
 Copyright (c) 1988,1990,1992,1993,1995,1998,2003,2009,2014,
            Gaussian, Inc.  All Rights Reserved.
  
 This is the private, development version of
 the Gaussian(R) DV system of programs. It is based on
 the Gaussian(R) 09 system (copyright 2009, Gaussian, Inc.),
 the Gaussian(R) 03 system (copyright 2003, Gaussian, Inc.),
 the Gaussian(R) 98 system (copyright 1998, Gaussian, Inc.),
 the Gaussian(R) 94 system (copyright 1995, Gaussian, Inc.),
 the Gaussian 92(TM) system (copyright 1992, Gaussian, Inc.),
 the Gaussian 90(TM) system (copyright 1990, Gaussian, Inc.),
 the Gaussian 88(TM) system (copyright 1988, Gaussian, Inc.),
 the Gaussian 86(TM) system (copyright 1986, Carnegie Mellon
 University), and the Gaussian 82(TM) system (copyright 1983,
 Carnegie Mellon University). Gaussian is a federally registered
 trademark of Gaussian, Inc.
  
 This software contains proprietary and confidential information,
 including trade secrets, belonging to Gaussian, Inc.
  
 This software is provided under written license and may be
 used, copied, transmitted, or stored only in accord with that
 written license.
  
 The following legend is applicable only to US Government
 contracts under FAR:
  
                    RESTRICTED RIGHTS LEGEND
  
 Use, reproduction and disclosure by the US Government is
 subject to restrictions as set forth in subparagraphs (a)
 and (c) of the Commercial Computer Software - Restricted
 Rights clause in FAR 52.227-19.
  
 Gaussian, Inc.
 340 Quinnipiac St., Bldg. 40, Wallingford CT 06492
  
  
 ---------------------------------------------------------------
 Warning -- This program may not be used in any manner that
 competes with the business of Gaussian, Inc. or will provide
 assistance to any competitor of Gaussian, Inc.  The licensee
 of this program is prohibited from giving any competitor of
 Gaussian, Inc. access to this program.  By using this program,
 the user acknowledges that Gaussian, Inc. is engaged in the
 business of creating and licensing software in the field of
 computational chemistry and represents and warrants to the
 licensee that it is not a competitor of Gaussian, Inc. and that
 it will not use this program in any manner prohibited above.
 ---------------------------------------------------------------
  

 Cite this work as:
 Gaussian Development Version, Revision I.01+,
 M. J. Frisch, G. W. Trucks, H. B. Schlegel, G. E. Scuseria, 
 M. A. Robb, J. R. Cheeseman, G. Scalmani, V. Barone, B. Mennucci, 
 G. A. Petersson, H. Nakatsuji, M. Caricato, X. Li, H. P. Hratchian, 
 A. F. Izmaylov, J. Bloino, B. G. Janesko, F. Lipparini, G. Zheng, 
 J. L. Sonnenberg, W. Liang, M. Hada, M. Ehara, K. Toyota, R. Fukuda, 
 J. Hasegawa, M. Ishida, T. Nakajima, Y. Honda, O. Kitao, H. Nakai, 
 T. Vreven, J. A. Montgomery, Jr., J. E. Peralta, F. Ogliaro, 
 M. Bearpark, J. J. Heyd, E. Brothers, K. N. Kudin, V. N. Staroverov, 
 T. Keith, R. Kobayashi, J. Normand, K. Raghavachari, A. Rendell, 
 J. C. Burant, S. S. Iyengar, J. Tomasi, M. Cossi, N. Rega, 
 J. M. Millam, M. Klene, J. E. Knox, J. B. Cross, V. Bakken, 
 C. Adamo, J. Jaramillo, R. Gomperts, R. E. Stratmann, O. Yazyev, 
 A. J. Austin, R. Cammi, C. Pomelli, J. W. Ochterski, R. L. Martin, 
 K. Morokuma, V. G. Zakrzewski, G. A. Voth, P. Salvador, 
 J. J. Dannenberg, S. Dapprich, P. V. Parandekar, N. J. Mayhall, 
 A. D. Daniels, O. Farkas, J. B. Foresman, J. V. Ortiz, 
 J. Cioslowski, and D. J. Fox, Gaussian, Inc., Wallingford CT, 2010.
 
 *******************************************
 Gaussian DV:  ES64L-GDVRevI.01+ 11-Sep-2014
                 22-Sep-2015 
 *******************************************
 -------------------------------------
 #p hf/cc-pVDZ gfinput pop=full nosymm
 -------------------------------------
 1/38=1,172=1/1;
 2/12=2,15=1,17=6,18=5,40=1/2;
 3/5=16,11=9,24=10,25=1,30=1/1,2,3;
 4//1;
 5/5=2,38=5/2;
 6/7=3,28=1/1;
 99/5=1,9=1/99;
 Leave Link    1 at Tue Sep 22 13:39:17 2015, MaxMem=           0 cpu:               0.0 elap:               0.0
 (Enter /home/gauss/gdvi01p/gdv/l101.exe)
 -------------
 Water cc-pVDZ
 -------------
 Symbolic Z-matrix:
 Charge =  0 Multiplicity = 1
 O                     0.       -0.07579   0. 
 H                     0.86681   0.60144   0. 
 H                    -0.86681   0.60144   0. 
 
 ITRead=  0  0  0
 MicOpt= -1 -1 -1
 NAtoms=      3 NQM=        3 NQMF=       0 NMMI=      0 NMMIF=      0
                NMic=       0 NMicF=      0.
                    Isotopes and Nuclear Properties:
 (Nuclear quadrupole moments (NQMom) in fm**2, nuclear magnetic moments (NMagM)
  in nuclear magnetons)

  Atom         1           2           3
 IAtWgt=          16           1           1
 AtmWgt=  15.9949146   1.0078250   1.0078250
 NucSpn=           0           1           1
 AtZEff=   0.0000000   0.0000000   0.0000000
 NQMom=    0.0000000   0.0000000   0.0000000
 NMagM=    0.0000000   2.7928460   2.7928460
 AtZNuc=   8.0000000   1.0000000   1.0000000
 Leave Link  101 at Tue Sep 22 13:39:17 2015, MaxMem=    33554432 cpu:               0.1 elap:               0.1
 (Enter /home/gauss/gdvi01p/gdv/l202.exe)
                          Input orientation:                          
 ---------------------------------------------------------------------
 Center     Atomic      Atomic             Coordinates (Angstroms)
 Number     Number       Type             X           Y           Z
 ---------------------------------------------------------------------
      1          8           0        0.000000   -0.075792    0.000000
      2          1           0        0.866812    0.601436    0.000000
      3          1           0       -0.866812    0.601436    0.000000
 ---------------------------------------------------------------------
                    Distance matrix (angstroms):
                    1          2          3
     1  O    0.000000
     2  H    1.100000   0.000000
     3  H    1.100000   1.733624   0.000000
 Symmetry turned off by external request.
 Stoichiometry    H2O
 Framework group  C2V[C2(O),SGV(H2)]
 Deg. of freedom     2
 Full point group                 C2V     NOp   4
 Rotational constants (GHZ):    615.5709784    333.6970768    216.3922350
 Leave Link  202 at Tue Sep 22 13:39:17 2015, MaxMem=    33554432 cpu:               0.0 elap:               0.0
 (Enter /home/gauss/gdvi01p/gdv/l301.exe)
 Standard basis: CC-pVDZ (5D, 7F)
 Ernie: Thresh=  0.10000D-02 Tol=  0.10000D-05 Strict=F.
 Ernie:  2 primitive shells out of 32 were deleted.
 AO basis set in the form of general basis input (Overlap normalization):
      1 0
 S   7 1.00       0.000000000000
      0.1172000000D+05  0.7118644339D-03
      0.1759000000D+04  0.5485201992D-02
      0.4008000000D+03  0.2790992963D-01
      0.1137000000D+03  0.1051332075D+00
      0.3703000000D+02  0.2840024898D+00
      0.1327000000D+02  0.4516739459D+00
      0.5025000000D+01  0.2732081255D+00
 S   7 1.00       0.000000000000
      0.1172000000D+05  0.7690300460D-05
      0.4008000000D+03  0.3134845790D-03
      0.1137000000D+03 -0.2966148530D-02
      0.3703000000D+02 -0.1087535430D-01
      0.1327000000D+02 -0.1207538168D+00
      0.5025000000D+01 -0.1062752639D+00
      0.1013000000D+01  0.1095975478D+01
 S   1 1.00       0.000000000000
      0.3023000000D+00  0.1000000000D+01
 P   3 1.00       0.000000000000
      0.1770000000D+02  0.6267916628D-01
      0.3854000000D+01  0.3335365659D+00
      0.1046000000D+01  0.7412396416D+00
 P   1 1.00       0.000000000000
      0.2753000000D+00  0.1000000000D+01
 D   1 1.00       0.000000000000
      0.1185000000D+01  0.1000000000D+01
 ****
      2 0
 S   3 1.00       0.000000000000
      0.1301000000D+02  0.3349872639D-01
      0.1962000000D+01  0.2348008012D+00
      0.4446000000D+00  0.8136829579D+00
 S   1 1.00       0.000000000000
      0.1220000000D+00  0.1000000000D+01
 P   1 1.00       0.000000000000
      0.7270000000D+00  0.1000000000D+01
 ****
      3 0
 S   3 1.00       0.000000000000
      0.1301000000D+02  0.3349872639D-01
      0.1962000000D+01  0.2348008012D+00
      0.4446000000D+00  0.8136829579D+00
 S   1 1.00       0.000000000000
      0.1220000000D+00  0.1000000000D+01
 P   1 1.00       0.000000000000
      0.7270000000D+00  0.1000000000D+01
 ****

    24 basis functions,    47 primitive gaussians,    25 cartesian basis functions
     5 alpha electrons        5 beta electrons
       nuclear repulsion energy         8.0023664856 Hartrees.
 IExCor=    0 DFT=F Ex=HF Corr=None ExCW=0 ScaHFX=  1.000000
 ScaDFX=  1.000000  1.000000  1.000000  1.000000 ScalE2=  1.000000  1.000000
 IRadAn=      0 IRanWt=     -1 IRanGd=            0 ICorTp=0 IEmpDi=  4
 NAtoms=    3 NActive=    3 NUniq=    3 SFac= 1.00D+00 NAtFMM=   60 NAOKFM=F Big=F
 Integral buffers will be    131072 words long.
 Raffenetti 1 integral format.
 Two-electron integral symmetry is turned off.
 Leave Link  301 at Tue Sep 22 13:39:18 2015, MaxMem=    33554432 cpu:               0.0 elap:               0.1
 (Enter /home/gauss/gdvi01p/gdv/l302.exe)
 NPDir=0 NMtPBC=     1 NCelOv=     1 NCel=       1 NClECP=     1 NCelD=      1
         NCelK=      1 NCelE2=     1 NClLst=     1 CellRange=     0.0.
 One-electron integrals computed using PRISM.
 One-electron integral symmetry used in STVInt
 NBasis=    24 RedAO= T EigKep=  4.72D-02  NBF=    24
 NBsUse=    24 1.00D-06 EigRej= -1.00D+00 NBFU=    24
 Leave Link  302 at Tue Sep 22 13:39:18 2015, MaxMem=    33554432 cpu:               0.1 elap:               0.1
 (Enter /home/gauss/gdvi01p/gdv/l303.exe)
 DipDrv:  MaxL=1.
 Leave Link  303 at Tue Sep 22 13:39:18 2015, MaxMem=    33554432 cpu:               0.0 elap:               0.0
 (Enter /home/gauss/gdvi01p/gdv/l401.exe)
 ExpMin= 1.22D-01 ExpMax= 1.17D+04 ExpMxC= 4.01D+02 IAcc=1 IRadAn=         1 AccDes= 0.00D+00
 Harris functional with IExCor=  205 and IRadAn=       1 diagonalized for initial guess.
 HarFok:  IExCor=  205 AccDes= 0.00D+00 IRadAn=         1 IDoV= 1 UseB2=F ITyADJ=14
 ICtDFT=  3500011 ScaDFX=  1.000000  1.000000  1.000000  1.000000
 FoFCou: FMM=F IPFlag=           0 FMFlag=      100000 FMFlg1=           0
         NFxFlg=           0 DoJE=T BraDBF=F KetDBF=T FulRan=T
         wScrn=  0.000000 ICntrl=       500 IOpCl=  0 I1Cent=   200000004 NGrid=           0
         NMat0=    1 NMatS0=      1 NMatT0=    0 NMatD0=    1 NMtDS0=    0 NMtDT0=    0
 Symmetry not used in FoFCou.
 Harris En= -76.0846461527860    
 JPrj=0 DoOrth=F DoCkMO=F.
 Leave Link  401 at Tue Sep 22 13:39:18 2015, MaxMem=    33554432 cpu:               0.1 elap:               0.1
 (Enter /home/gauss/gdvi01p/gdv/l502.exe)
 Keep R1 ints in memory in canonical form, NReq=877069.
 FoFCou: FMM=F IPFlag=           0 FMFlag=           0 FMFlg1=           0
         NFxFlg=           0 DoJE=F BraDBF=F KetDBF=F FulRan=T
         wScrn=  0.000000 ICntrl=       600 IOpCl=  0 I1Cent=           0 NGrid=           0
         NMat0=    1 NMatS0=    300 NMatT0=    0 NMatD0=    1 NMtDS0=    0 NMtDT0=    0
 Symmetry not used in FoFCou.
 Two-electron integral symmetry not used.
 Closed shell SCF:
 Using DIIS extrapolation, IDIIS=  1040.
 NGot=    33554432 LenX=    33507504 LenY=    33506438
 Requested convergence on RMS density matrix=1.00D-08 within 128 cycles.
 Requested convergence on MAX density matrix=1.00D-06.
 Requested convergence on             energy=1.00D-06.
 No special actions if energy rises.

 Cycle   1  Pass 1  IDiag  1:
 E= -75.9096772167949    
 DIIS: error= 5.93D-02 at cycle   1 NSaved=   1.
 NSaved= 1 IEnMin= 1 EnMin= -75.9096772167949     IErMin= 1 ErrMin= 5.93D-02
 ErrMax= 5.93D-02  0.00D+00 EMaxC= 1.00D-01 BMatC= 1.11D-01 BMatP= 1.11D-01
 IDIUse=3 WtCom= 4.07D-01 WtEn= 5.93D-01
 Coeff-Com:  0.100D+01
 Coeff-En:   0.100D+01
 Coeff:      0.100D+01
 Gap=     0.519 Goal=   None    Shift=    0.000
 GapD=    0.519 DampG=2.000 DampE=0.500 DampFc=1.0000 IDamp=-1.
 RMSDP=1.17D-02 MaxDP=1.18D-01              OVMax= 1.44D-01

 Cycle   2  Pass 1  IDiag  1:
 E= -75.9572296545603     Delta-E=       -0.047552437765 Rises=F Damp=F
 DIIS: error= 3.76D-02 at cycle   2 NSaved=   2.
 NSaved= 2 IEnMin= 2 EnMin= -75.9572296545603     IErMin= 2 ErrMin= 3.76D-02
 ErrMax= 3.76D-02  0.00D+00 EMaxC= 1.00D-01 BMatC= 4.61D-02 BMatP= 1.11D-01
 IDIUse=3 WtCom= 6.24D-01 WtEn= 3.76D-01
 Coeff-Com:  0.381D+00 0.619D+00
 Coeff-En:   0.195D+00 0.805D+00
 Coeff:      0.311D+00 0.689D+00
 Gap=     0.651 Goal=   None    Shift=    0.000
 RMSDP=5.65D-03 MaxDP=5.68D-02 DE=-4.76D-02 OVMax= 5.43D-02

 Cycle   3  Pass 1  IDiag  1:
 E= -75.9888734836883     Delta-E=       -0.031643829128 Rises=F Damp=F
 DIIS: error= 6.49D-03 at cycle   3 NSaved=   3.
 NSaved= 3 IEnMin= 3 EnMin= -75.9888734836883     IErMin= 3 ErrMin= 6.49D-03
 ErrMax= 6.49D-03  0.00D+00 EMaxC= 1.00D-01 BMatC= 9.83D-04 BMatP= 4.61D-02
 IDIUse=3 WtCom= 9.35D-01 WtEn= 6.49D-02
 Coeff-Com: -0.386D-01 0.787D-01 0.960D+00
 Coeff-En:   0.000D+00 0.000D+00 0.100D+01
 Coeff:     -0.361D-01 0.736D-01 0.963D+00
 Gap=     0.640 Goal=   None    Shift=    0.000
 RMSDP=8.19D-04 MaxDP=9.34D-03 DE=-3.16D-02 OVMax= 1.17D-02

 Cycle   4  Pass 1  IDiag  1:
 E= -75.9897650925922     Delta-E=       -0.000891608904 Rises=F Damp=F
 DIIS: error= 1.11D-03 at cycle   4 NSaved=   4.
 NSaved= 4 IEnMin= 4 EnMin= -75.9897650925922     IErMin= 4 ErrMin= 1.11D-03
 ErrMax= 1.11D-03  0.00D+00 EMaxC= 1.00D-01 BMatC= 2.03D-05 BMatP= 9.83D-04
 IDIUse=3 WtCom= 9.89D-01 WtEn= 1.11D-02
 Coeff-Com:  0.650D-02-0.491D-01-0.288D+00 0.133D+01
 Coeff-En:   0.000D+00 0.000D+00 0.000D+00 0.100D+01
 Coeff:      0.643D-02-0.486D-01-0.285D+00 0.133D+01
 Gap=     0.643 Goal=   None    Shift=    0.000
 RMSDP=2.07D-04 MaxDP=2.60D-03 DE=-8.92D-04 OVMax= 2.19D-03

 Cycle   5  Pass 1  IDiag  1:
 E= -75.9897947510833     Delta-E=       -0.000029658491 Rises=F Damp=F
 DIIS: error= 1.66D-04 at cycle   5 NSaved=   5.
 NSaved= 5 IEnMin= 5 EnMin= -75.9897947510833     IErMin= 5 ErrMin= 1.66D-04
 ErrMax= 1.66D-04  0.00D+00 EMaxC= 1.00D-01 BMatC= 4.41D-07 BMatP= 2.03D-05
 IDIUse=3 WtCom= 9.98D-01 WtEn= 1.66D-03
 Coeff-Com:  0.847D-03 0.117D-02-0.371D-02-0.155D+00 0.116D+01
 Coeff-En:   0.000D+00 0.000D+00 0.000D+00 0.000D+00 0.100D+01
 Coeff:      0.845D-03 0.117D-02-0.370D-02-0.155D+00 0.116D+01
 Gap=     0.644 Goal=   None    Shift=    0.000
 RMSDP=4.41D-05 MaxDP=4.91D-04 DE=-2.97D-05 OVMax= 5.50D-04

 Cycle   6  Pass 1  IDiag  1:
 E= -75.9897957362561     Delta-E=       -0.000000985173 Rises=F Damp=F
 DIIS: error= 3.02D-05 at cycle   6 NSaved=   6.
 NSaved= 6 IEnMin= 6 EnMin= -75.9897957362561     IErMin= 6 ErrMin= 3.02D-05
 ErrMax= 3.02D-05  0.00D+00 EMaxC= 1.00D-01 BMatC= 1.82D-08 BMatP= 4.41D-07
 IDIUse=1 WtCom= 1.00D+00 WtEn= 0.00D+00
 Coeff-Com: -0.386D-03 0.134D-02 0.112D-01-0.157D-01-0.282D+00 0.129D+01
 Coeff:     -0.386D-03 0.134D-02 0.112D-01-0.157D-01-0.282D+00 0.129D+01
 Gap=     0.644 Goal=   None    Shift=    0.000
 RMSDP=1.13D-05 MaxDP=1.02D-04 DE=-9.85D-07 OVMax= 1.55D-04

 Cycle   7  Pass 1  IDiag  1:
 E= -75.9897957843301     Delta-E=       -0.000000048074 Rises=F Damp=F
 DIIS: error= 6.12D-06 at cycle   7 NSaved=   7.
 NSaved= 7 IEnMin= 7 EnMin= -75.9897957843301     IErMin= 7 ErrMin= 6.12D-06
 ErrMax= 6.12D-06  0.00D+00 EMaxC= 1.00D-01 BMatC= 8.84D-10 BMatP= 1.82D-08
 IDIUse=1 WtCom= 1.00D+00 WtEn= 0.00D+00
 Coeff-Com:  0.197D-03-0.846D-03-0.660D-02 0.151D-01 0.133D+00-0.747D+00
 Coeff-Com:  0.161D+01
 Coeff:      0.197D-03-0.846D-03-0.660D-02 0.151D-01 0.133D+00-0.747D+00
 Coeff:      0.161D+01
 Gap=     0.644 Goal=   None    Shift=    0.000
 RMSDP=2.53D-06 MaxDP=2.79D-05 DE=-4.81D-08 OVMax= 3.94D-05

 Cycle   8  Pass 1  IDiag  1:
 E= -75.9897957873920     Delta-E=       -0.000000003062 Rises=F Damp=F
 DIIS: error= 1.19D-06 at cycle   8 NSaved=   8.
 NSaved= 8 IEnMin= 8 EnMin= -75.9897957873920     IErMin= 8 ErrMin= 1.19D-06
 ErrMax= 1.19D-06  0.00D+00 EMaxC= 1.00D-01 BMatC= 3.21D-11 BMatP= 8.84D-10
 IDIUse=1 WtCom= 1.00D+00 WtEn= 0.00D+00
 Coeff-Com: -0.535D-04 0.259D-03 0.198D-02-0.589D-02-0.311D-01 0.206D+00
 Coeff-Com: -0.598D+00 0.143D+01
 Coeff:     -0.535D-04 0.259D-03 0.198D-02-0.589D-02-0.311D-01 0.206D+00
 Coeff:     -0.598D+00 0.143D+01
 Gap=     0.644 Goal=   None    Shift=    0.000
 RMSDP=5.38D-07 MaxDP=4.08D-06 DE=-3.06D-09 OVMax= 8.53D-06

 Cycle   9  Pass 1  IDiag  1:
 E= -75.9897957875003     Delta-E=       -0.000000000108 Rises=F Damp=F
 DIIS: error= 1.05D-07 at cycle   9 NSaved=   9.
 NSaved= 9 IEnMin= 9 EnMin= -75.9897957875003     IErMin= 9 ErrMin= 1.05D-07
 ErrMax= 1.05D-07  0.00D+00 EMaxC= 1.00D-01 BMatC= 2.64D-13 BMatP= 3.21D-11
 IDIUse=1 WtCom= 1.00D+00 WtEn= 0.00D+00
 Coeff-Com:  0.683D-05-0.345D-04-0.269D-03 0.886D-03 0.384D-02-0.279D-01
 Coeff-Com:  0.923D-01-0.308D+00 0.124D+01
 Coeff:      0.683D-05-0.345D-04-0.269D-03 0.886D-03 0.384D-02-0.279D-01
 Coeff:      0.923D-01-0.308D+00 0.124D+01
 Gap=     0.644 Goal=   None    Shift=    0.000
 RMSDP=5.59D-08 MaxDP=4.14D-07 DE=-1.08D-10 OVMax= 8.07D-07

 Cycle  10  Pass 1  IDiag  1:
 E= -75.9897957875010     Delta-E=       -0.000000000001 Rises=F Damp=F
 DIIS: error= 1.77D-08 at cycle  10 NSaved=  10.
 NSaved=10 IEnMin=10 EnMin= -75.9897957875010     IErMin=10 ErrMin= 1.77D-08
 ErrMax= 1.77D-08  0.00D+00 EMaxC= 1.00D-01 BMatC= 6.13D-15 BMatP= 2.64D-13
 IDIUse=1 WtCom= 1.00D+00 WtEn= 0.00D+00
 Coeff-Com: -0.792D-06 0.419D-05 0.345D-04-0.133D-03-0.415D-03 0.356D-02
 Coeff-Com: -0.134D-01 0.498D-01-0.255D+00 0.122D+01
 Coeff:     -0.792D-06 0.419D-05 0.345D-04-0.133D-03-0.415D-03 0.356D-02
 Coeff:     -0.134D-01 0.498D-01-0.255D+00 0.122D+01
 Gap=     0.644 Goal=   None    Shift=    0.000
 RMSDP=5.21D-09 MaxDP=3.55D-08 DE=-7.53D-13 OVMax= 6.96D-08

 SCF Done:  E(RHF) =  -75.9897957875     A.U. after   10 cycles
            NFock= 10  Conv=0.52D-08     -V/T= 2.0057
 KE= 7.556012802181D+01 PE=-1.965235353406D+02 EE= 3.697124504565D+01
 Leave Link  502 at Tue Sep 22 13:39:18 2015, MaxMem=    33554432 cpu:               0.1 elap:               0.1
 (Enter /home/gauss/gdvi01p/gdv/l601.exe)
 Copying SCF densities to generalized density rwf, IOpCl= 0 IROHF=0.

 **********************************************************************

            Population analysis using the SCF density.

 **********************************************************************

 Alpha  occ. eigenvalues --  -20.57475  -1.27757  -0.62991  -0.54168  -0.48654
 Alpha virt. eigenvalues --    0.15762   0.22951   0.70468   0.74456   1.17081
 Alpha virt. eigenvalues --    1.18642   1.26803   1.45091   1.47393   1.65847
 Alpha virt. eigenvalues --    1.80424   1.89143   2.14912   2.20024   3.17260
 Alpha virt. eigenvalues --    3.20969   3.32810   3.72135   3.98547
     Molecular Orbital Coefficients:
                           1         2         3         4         5
                           O         O         O         O         O
     Eigenvalues --   -20.57475  -1.27757  -0.62991  -0.54168  -0.48654
   1 1   O  1S          0.99719  -0.21190   0.00000   0.06442   0.00000
   2        2S          0.01472   0.45637   0.00000  -0.13920   0.00000
   3        3S         -0.00338   0.46057   0.00000  -0.29945   0.00000
   4        4PX         0.00000   0.00000   0.47439   0.00000   0.00000
   5        4PY         0.00145   0.05418   0.00000   0.53025   0.00000
   6        4PZ         0.00000   0.00000   0.00000   0.00000   0.63733
   7        5PX         0.00000   0.00000   0.26190   0.00000   0.00000
   8        5PY        -0.00087   0.00476   0.00000   0.37778   0.00000
   9        5PZ         0.00000   0.00000   0.00000   0.00000   0.49910
  10        6D 0        0.00015  -0.00295   0.00000  -0.01253   0.00000
  11        6D+1        0.00000   0.00000   0.00000   0.00000   0.00000
  12        6D-1        0.00000   0.00000   0.00000   0.00000   0.01613
  13        6D+2       -0.00003   0.00034   0.00000  -0.01141   0.00000
  14        6D-2        0.00000   0.00000   0.02337   0.00000   0.00000
  15 2   H  1S          0.00032   0.14067   0.29959   0.20745   0.00000
  16        2S          0.00046   0.01396   0.11874   0.07216   0.00000
  17        3PX         0.00015  -0.02675  -0.02293  -0.02862   0.00000
  18        3PY         0.00021  -0.01617  -0.02932   0.00349   0.00000
  19        3PZ         0.00000   0.00000   0.00000   0.00000   0.02534
  20 3   H  1S          0.00032   0.14067  -0.29959   0.20745   0.00000
  21        2S          0.00046   0.01396  -0.11874   0.07216   0.00000
  22        3PX        -0.00015   0.02675  -0.02293   0.02862   0.00000
  23        3PY         0.00021  -0.01617   0.02932   0.00349   0.00000
  24        3PZ         0.00000   0.00000   0.00000   0.00000   0.02534
                           6         7         8         9        10
                           V         V         V         V         V
     Eigenvalues --     0.15762   0.22951   0.70468   0.74456   1.17081
   1 1   O  1S         -0.08236   0.00000   0.00000   0.03419  -0.04448
   2        2S          0.07946   0.00000   0.00000  -0.25436   0.13998
   3        3S          0.84455   0.00000   0.00000   0.35037   0.37661
   4        4PX         0.00000  -0.32850  -0.28196   0.00000   0.00000
   5        4PY         0.24545   0.00000   0.00000  -0.31712  -0.77533
   6        4PZ         0.00000   0.00000   0.00000   0.00000   0.00000
   7        5PX         0.00000  -0.65506  -0.23849   0.00000   0.00000
   8        5PY         0.38664   0.00000   0.00000  -0.04017   1.07444
   9        5PZ         0.00000   0.00000   0.00000   0.00000   0.00000
  10        6D 0       -0.00577   0.00000   0.00000  -0.06920   0.00468
  11        6D+1        0.00000   0.00000   0.00000   0.00000   0.00000
  12        6D-1        0.00000   0.00000   0.00000   0.00000   0.00000
  13        6D+2       -0.00515   0.00000   0.00000   0.04218  -0.03829
  14        6D-2        0.00000  -0.00981   0.09163   0.00000   0.00000
  15 2   H  1S         -0.09469   0.07105   0.93176   0.87230  -0.33520
  16        2S         -0.75636   1.18305  -0.87021  -0.64411  -0.09403
  17        3PX         0.00338  -0.00975   0.03828   0.19102   0.01668
  18        3PY         0.00918  -0.00284   0.11005   0.03849   0.31589
  19        3PZ         0.00000   0.00000   0.00000   0.00000   0.00000
  20 3   H  1S         -0.09469  -0.07105  -0.93176   0.87230  -0.33520
  21        2S         -0.75636  -1.18305   0.87021  -0.64411  -0.09403
  22        3PX        -0.00338  -0.00975   0.03828  -0.19102  -0.01668
  23        3PY         0.00918   0.00284  -0.11005   0.03849   0.31589
  24        3PZ         0.00000   0.00000   0.00000   0.00000   0.00000
                          11        12        13        14        15
                           V         V         V         V         V
     Eigenvalues --     1.18642   1.26803   1.45091   1.47393   1.65847
   1 1   O  1S          0.00000   0.00000   0.00000  -0.03898   0.00000
   2        2S          0.00000   0.00000   0.00000   0.59799   0.00000
   3        3S          0.00000   0.00000   0.00000  -0.52559   0.00000
   4        4PX         0.00000  -0.79254   0.00000   0.00000   0.00000
   5        4PY         0.00000   0.00000   0.00000  -0.27073   0.00000
   6        4PZ         0.94334   0.00000   0.00000   0.00000   0.20724
   7        5PX         0.00000   1.57610   0.00000   0.00000   0.00000
   8        5PY         0.00000   0.00000   0.00000   0.75643   0.00000
   9        5PZ        -0.92857   0.00000   0.00000   0.00000  -0.69221
  10        6D 0        0.00000   0.00000   0.00000   0.03723   0.00000
  11        6D+1        0.00000   0.00000   0.14393   0.00000   0.00000
  12        6D-1       -0.00918   0.00000   0.00000   0.00000   0.16262
  13        6D+2        0.00000   0.00000   0.00000   0.14236   0.00000
  14        6D-2        0.00000  -0.00466   0.00000   0.00000   0.00000
  15 2   H  1S          0.00000  -0.28172   0.00000  -0.29329   0.00000
  16        2S          0.00000  -0.62670   0.00000   0.17298   0.00000
  17        3PX         0.00000   0.32873   0.00000   0.38890   0.00000
  18        3PY         0.00000   0.09703   0.00000  -0.46543   0.00000
  19        3PZ        -0.12804   0.00000   0.68101   0.00000   0.73401
  20 3   H  1S          0.00000   0.28172   0.00000  -0.29329   0.00000
  21        2S          0.00000   0.62670   0.00000   0.17298   0.00000
  22        3PX         0.00000   0.32873   0.00000  -0.38890   0.00000
  23        3PY         0.00000  -0.09703   0.00000  -0.46543   0.00000
  24        3PZ        -0.12804   0.00000  -0.68101   0.00000   0.73401
                          16        17        18        19        20
                           V         V         V         V         V
     Eigenvalues --     1.80424   1.89143   2.14912   2.20024   3.17260
   1 1   O  1S          0.00000   0.01924   0.00000  -0.07616   0.00000
   2        2S          0.00000  -1.68308   0.00000  -0.03732   0.00000
   3        3S          0.00000   2.42900   0.00000   1.35113   0.00000
   4        4PX        -0.15860   0.00000   0.65364   0.00000   0.00000
   5        4PY         0.00000  -0.21470   0.00000   0.50087   0.00000
   6        4PZ         0.00000   0.00000   0.00000   0.00000  -0.05242
   7        5PX         0.89915   0.00000   0.16230   0.00000   0.00000
   8        5PY         0.00000   0.89606   0.00000   0.39744   0.00000
   9        5PZ         0.00000   0.00000   0.00000   0.00000   0.21737
  10        6D 0        0.00000   0.14544   0.00000   0.21277   0.00000
  11        6D+1        0.00000   0.00000   0.00000   0.00000   0.00000
  12        6D-1        0.00000   0.00000   0.00000   0.00000   1.01197
  13        6D+2        0.00000   0.05329   0.00000  -0.03799   0.00000
  14        6D-2       -0.02768   0.00000  -0.11466   0.00000   0.00000
  15 2   H  1S         -0.33997  -0.56523  -0.09750  -0.42381   0.00000
  16        2S         -0.09864  -0.29381  -0.34461  -0.25773   0.00000
  17        3PX        -0.37893   0.22788   0.64689   0.76421   0.00000
  18        3PY         0.68074  -0.11945   0.50032   0.49561   0.00000
  19        3PZ         0.00000   0.00000   0.00000   0.00000  -0.29850
  20 3   H  1S          0.33997  -0.56523   0.09750  -0.42381   0.00000
  21        2S          0.09864  -0.29381   0.34461  -0.25773   0.00000
  22        3PX        -0.37893  -0.22788   0.64689  -0.76421   0.00000
  23        3PY        -0.68074  -0.11945  -0.50032   0.49561   0.00000
  24        3PZ         0.00000   0.00000   0.00000   0.00000  -0.29850
                          21        22        23        24
                           V         V         V         V
     Eigenvalues --     3.20969   3.32810   3.72135   3.98547
   1 1   O  1S          0.00000   0.00779  -0.06512   0.00000
   2        2S          0.00000   0.12264  -0.50872   0.00000
   3        3S          0.00000  -0.29197   1.83391   0.00000
   4        4PX         0.00000   0.00000   0.00000   0.19792
   5        4PY         0.00000   0.05415   0.17767   0.00000
   6        4PZ         0.00000   0.00000   0.00000   0.00000
   7        5PX         0.00000   0.00000   0.00000   0.95580
   8        5PY         0.00000  -0.35287   0.81118   0.00000
   9        5PZ         0.00000   0.00000   0.00000   0.00000
  10        6D 0        0.00000   0.30992  -1.04941   0.00000
  11        6D+1        1.02464   0.00000   0.00000   0.00000
  12        6D-1        0.00000   0.00000   0.00000   0.00000
  13        6D+2        0.00000   0.98887   0.36639   0.00000
  14        6D-2        0.00000   0.00000   0.00000   1.24232
  15 2   H  1S          0.00000   0.15584  -0.82785  -0.69381
  16        2S          0.00000   0.01717  -0.18407  -0.25216
  17        3PX         0.00000  -0.26891   0.57032   0.50442
  18        3PY         0.00000   0.25957   0.40181   0.44206
  19        3PZ        -0.28734   0.00000   0.00000   0.00000
  20 3   H  1S          0.00000   0.15584  -0.82785   0.69381
  21        2S          0.00000   0.01717  -0.18407   0.25216
  22        3PX         0.00000   0.26891  -0.57032   0.50442
  23        3PY         0.00000   0.25957   0.40181  -0.44206
  24        3PZ         0.28734   0.00000   0.00000   0.00000
     Density Matrix:
                           1         2         3         4         5
   1 1   O  1S          2.08687
   2        2S         -0.18198   0.45573
   3        3S         -0.24051   0.50365   0.60361
   4        4PX         0.00000   0.00000   0.00000   0.45010
   5        4PY         0.04824  -0.09813  -0.26768   0.00000   0.56820
   6        4PZ         0.00000   0.00000   0.00000   0.00000   0.00000
   7        5PX         0.00000   0.00000   0.00000   0.24849   0.00000
   8        5PY         0.04491  -0.10086  -0.22187   0.00000   0.40115
   9        5PZ         0.00000   0.00000   0.00000   0.00000   0.00000
  10        6D 0       -0.00007   0.00080   0.00479   0.00000  -0.01361
  11        6D+1        0.00000   0.00000   0.00000   0.00000   0.00000
  12        6D-1        0.00000   0.00000   0.00000   0.00000   0.00000
  13        6D+2       -0.00166   0.00348   0.00714   0.00000  -0.01206
  14        6D-2        0.00000   0.00000   0.00000   0.02218   0.00000
  15 2   H  1S         -0.03224   0.07065   0.00533   0.28425   0.23524
  16        2S          0.00430  -0.00733  -0.03036   0.11266   0.07804
  17        3PX         0.00795  -0.01644  -0.00750  -0.02176  -0.03325
  18        3PY         0.00771  -0.01572  -0.01698  -0.02782   0.00194
  19        3PZ         0.00000   0.00000   0.00000   0.00000   0.00000
  20 3   H  1S         -0.03224   0.07065   0.00533  -0.28425   0.23524
  21        2S          0.00430  -0.00733  -0.03036  -0.11266   0.07804
  22        3PX        -0.00795   0.01644   0.00750  -0.02176   0.03325
  23        3PY         0.00771  -0.01572  -0.01698   0.02782   0.00194
  24        3PZ         0.00000   0.00000   0.00000   0.00000   0.00000
                           6         7         8         9        10
   6        4PZ         0.81239
   7        5PX         0.00000   0.13718
   8        5PY         0.00000   0.00000   0.28548
   9        5PZ         0.63619   0.00000   0.00000   0.49821
  10        6D 0        0.00000   0.00000  -0.00950   0.00000   0.00033
  11        6D+1        0.00000   0.00000   0.00000   0.00000   0.00000
  12        6D-1        0.02056   0.00000   0.00000   0.01610   0.00000
  13        6D+2        0.00000   0.00000  -0.00861   0.00000   0.00028
  14        6D-2        0.00000   0.01224   0.00000   0.00000   0.00000
  15 2   H  1S          0.00000   0.15693   0.15808   0.00000  -0.00603
  16        2S          0.00000   0.06220   0.05465   0.00000  -0.00189
  17        3PX         0.00000  -0.01201  -0.02188   0.00000   0.00087
  18        3PY         0.00000  -0.01536   0.00248   0.00000   0.00001
  19        3PZ         0.03230   0.00000   0.00000   0.02530   0.00000
  20 3   H  1S          0.00000  -0.15693   0.15808   0.00000  -0.00603
  21        2S          0.00000  -0.06220   0.05465   0.00000  -0.00189
  22        3PX         0.00000  -0.01201   0.02188   0.00000  -0.00087
  23        3PY         0.00000   0.01536   0.00248   0.00000   0.00001
  24        3PZ         0.03230   0.00000   0.00000   0.02530   0.00000
                          11        12        13        14        15
  11        6D+1        0.00000
  12        6D-1        0.00000   0.00052
  13        6D+2        0.00000   0.00000   0.00026
  14        6D-2        0.00000   0.00000   0.00000   0.00109
  15 2   H  1S          0.00000   0.00000  -0.00464   0.01400   0.30516
  16        2S          0.00000   0.00000  -0.00164   0.00555   0.10501
  17        3PX         0.00000   0.00000   0.00063  -0.00107  -0.03314
  18        3PY         0.00000   0.00000  -0.00009  -0.00137  -0.02067
  19        3PZ         0.00000   0.00082   0.00000   0.00000   0.00000
  20 3   H  1S          0.00000   0.00000  -0.00464  -0.01400  -0.05386
  21        2S          0.00000   0.00000  -0.00164  -0.00555  -0.03728
  22        3PX         0.00000   0.00000  -0.00063  -0.00107   0.00566
  23        3PY         0.00000   0.00000  -0.00009   0.00137   0.01447
  24        3PZ         0.00000   0.00082   0.00000   0.00000   0.00000
                          16        17        18        19        20
  16        2S          0.03900
  17        3PX        -0.01032   0.00412
  18        3PY        -0.00691   0.00201   0.00227
  19        3PZ         0.00000   0.00000   0.00000   0.00128
  20 3   H  1S         -0.03728  -0.00566   0.01447   0.00000   0.30516
  21        2S         -0.01739   0.00057   0.00701   0.00000   0.10501
  22        3PX        -0.00057  -0.00202   0.00068   0.00000   0.03314
  23        3PY         0.00701  -0.00068  -0.00117   0.00000  -0.02067
  24        3PZ         0.00000   0.00000   0.00000   0.00128   0.00000
                          21        22        23        24
  21        2S          0.03900
  22        3PX         0.01032   0.00412
  23        3PY        -0.00691  -0.00201   0.00227
  24        3PZ         0.00000   0.00000   0.00000   0.00128
    Full Mulliken population analysis:
                           1         2         3         4         5
   1 1   O  1S          2.08687
   2        2S         -0.04098   0.45573
   3        3S         -0.04421   0.39900   0.60361
   4        4PX         0.00000   0.00000   0.00000   0.45010
   5        4PY         0.00000   0.00000   0.00000   0.00000   0.56820
   6        4PZ         0.00000   0.00000   0.00000   0.00000   0.00000
   7        5PX         0.00000   0.00000   0.00000   0.12456   0.00000
   8        5PY         0.00000   0.00000   0.00000   0.00000   0.20108
   9        5PZ         0.00000   0.00000   0.00000   0.00000   0.00000
  10        6D 0        0.00000   0.00000   0.00000   0.00000   0.00000
  11        6D+1        0.00000   0.00000   0.00000   0.00000   0.00000
  12        6D-1        0.00000   0.00000   0.00000   0.00000   0.00000
  13        6D+2        0.00000   0.00000   0.00000   0.00000   0.00000
  14        6D-2        0.00000   0.00000   0.00000   0.00000   0.00000
  15 2   H  1S         -0.00102   0.01494   0.00217   0.04900   0.03168
  16        2S          0.00025  -0.00232  -0.01796   0.00965   0.00522
  17        3PX        -0.00038   0.00438   0.00213   0.00371   0.00762
  18        3PY        -0.00028   0.00327   0.00376   0.00637  -0.00011
  19        3PZ         0.00000   0.00000   0.00000   0.00000   0.00000
  20 3   H  1S         -0.00102   0.01494   0.00217   0.04900   0.03168
  21        2S          0.00025  -0.00232  -0.01796   0.00965   0.00522
  22        3PX        -0.00038   0.00438   0.00213   0.00371   0.00762
  23        3PY        -0.00028   0.00327   0.00376   0.00637  -0.00011
  24        3PZ         0.00000   0.00000   0.00000   0.00000   0.00000
                           6         7         8         9        10
   6        4PZ         0.81239
   7        5PX         0.00000   0.13718
   8        5PY         0.00000   0.00000   0.28548
   9        5PZ         0.31890   0.00000   0.00000   0.49821
  10        6D 0        0.00000   0.00000   0.00000   0.00000   0.00033
  11        6D+1        0.00000   0.00000   0.00000   0.00000   0.00000
  12        6D-1        0.00000   0.00000   0.00000   0.00000   0.00000
  13        6D+2        0.00000   0.00000   0.00000   0.00000   0.00000
  14        6D-2        0.00000   0.00000   0.00000   0.00000   0.00000
  15 2   H  1S          0.00000   0.07314   0.05757   0.00000   0.00058
  16        2S          0.00000   0.02019   0.01386   0.00000   0.00003
  17        3PX         0.00000   0.00027   0.00582   0.00000   0.00009
  18        3PY         0.00000   0.00409   0.00027   0.00000   0.00000
  19        3PZ         0.00396   0.00000   0.00000   0.00804   0.00000
  20 3   H  1S          0.00000   0.07314   0.05757   0.00000   0.00058
  21        2S          0.00000   0.02019   0.01386   0.00000   0.00003
  22        3PX         0.00000   0.00027   0.00582   0.00000   0.00009
  23        3PY         0.00000   0.00409   0.00027   0.00000   0.00000
  24        3PZ         0.00396   0.00000   0.00000   0.00804   0.00000
                          11        12        13        14        15
  11        6D+1        0.00000
  12        6D-1        0.00000   0.00052
  13        6D+2        0.00000   0.00000   0.00026
  14        6D-2        0.00000   0.00000   0.00000   0.00109
  15 2   H  1S          0.00000   0.00000  -0.00019   0.00227   0.30516
  16        2S          0.00000   0.00000  -0.00001   0.00013   0.07192
  17        3PX         0.00000   0.00000   0.00006   0.00021   0.00000
  18        3PY         0.00000   0.00000   0.00002   0.00012   0.00000
  19        3PZ         0.00000   0.00011   0.00000   0.00000   0.00000
  20 3   H  1S          0.00000   0.00000  -0.00019   0.00227  -0.00358
  21        2S          0.00000   0.00000  -0.00001   0.00013  -0.00894
  22        3PX         0.00000   0.00000   0.00006   0.00021   0.00050
  23        3PY         0.00000   0.00000   0.00002   0.00012   0.00000
  24        3PZ         0.00000   0.00011   0.00000   0.00000   0.00000
                          16        17        18        19        20
  16        2S          0.03900
  17        3PX         0.00000   0.00412
  18        3PY         0.00000   0.00000   0.00227
  19        3PZ         0.00000   0.00000   0.00000   0.00128
  20 3   H  1S         -0.00894   0.00050   0.00000   0.00000   0.30516
  21        2S         -0.00904  -0.00009   0.00000   0.00000   0.07192
  22        3PX        -0.00009   0.00028   0.00000   0.00000   0.00000
  23        3PY         0.00000   0.00000  -0.00002   0.00000   0.00000
  24        3PZ         0.00000   0.00000   0.00000   0.00003   0.00000
                          21        22        23        24
  21        2S          0.03900
  22        3PX         0.00000   0.00412
  23        3PY         0.00000   0.00000   0.00227
  24        3PZ         0.00000   0.00000   0.00000   0.00128
     Gross orbital populations:
                           1
   1 1   O  1S          1.99881
   2        2S          0.85428
   3        3S          0.93860
   4        4PX         0.71212
   5        4PY         0.85811
   6        4PZ         1.13921
   7        5PX         0.45713
   8        5PY         0.64160
   9        5PZ         0.83319
  10        6D 0        0.00172
  11        6D+1        0.00000
  12        6D-1        0.00075
  13        6D+2        0.00003
  14        6D-2        0.00655
  15 2   H  1S          0.59518
  16        2S          0.12188
  17        3PX         0.02872
  18        3PY         0.01975
  19        3PZ         0.01342
  20 3   H  1S          0.59518
  21        2S          0.12188
  22        3PX         0.02872
  23        3PY         0.01975
  24        3PZ         0.01342
          Condensed to atoms (all electrons):
               1          2          3
     1  O    7.816688   0.312693   0.312693
     2  H    0.312693   0.495666  -0.029396
     3  H    0.312693  -0.029396   0.495666
 Mulliken charges:
               1
     1  O   -0.442075
     2  H    0.221037
     3  H    0.221037
 Sum of Mulliken charges =   0.00000
 Mulliken charges with hydrogens summed into heavy atoms:
               1
     1  O    0.000000
 Electronic spatial extent (au):  <R**2>=             20.6280
 Charge=              0.0000 electrons
 Dipole moment (field-independent basis, Debye):
    X=              0.0000    Y=              2.1766    Z=              0.0000  Tot=              2.1766
 Quadrupole moment (field-independent basis, Debye-Ang):
   XX=             -3.8395   YY=             -5.6417   ZZ=             -7.3506
   XY=              0.0000   XZ=              0.0000   YZ=              0.0000
 Traceless Quadrupole moment (field-independent basis, Debye-Ang):
   XX=              1.7711   YY=             -0.0311   ZZ=             -1.7400
   XY=              0.0000   XZ=              0.0000   YZ=              0.0000
 Octapole moment (field-independent basis, Debye-Ang**2):
  XXX=              0.0000  YYY=              0.0793  ZZZ=              0.0000  XYY=              0.0000
  XXY=              1.5423  XXZ=              0.0000  XZZ=              0.0000  YZZ=             -0.2439
  YYZ=              0.0000  XYZ=              0.0000
 Hexadecapole moment (field-independent basis, Debye-Ang**3):
 XXXX=             -6.6468 YYYY=             -6.7062 ZZZZ=             -5.2618 XXXY=              0.0000
 XXXZ=              0.0000 YYYX=              0.0000 YYYZ=              0.0000 ZZZX=              0.0000
 ZZZY=              0.0000 XXYY=             -1.4310 XXZZ=             -2.4717 YYZZ=             -2.1155
 XXYZ=              0.0000 YYXZ=              0.0000 ZZXY=              0.0000
 N-N= 8.002366485626D+00 E-N=-1.965235356121D+02  KE= 7.556012802181D+01
 Orbital energies and kinetic energies (alpha):
                                 1                 2
   1         O               -20.574752         29.209013
   2         O                -1.277566          2.651580
   3         O                -0.629911          1.593141
   4         O                -0.541684          2.024989
   5         O                -0.486545          2.301341
   6         V                 0.157621          0.919827
   7         V                 0.229513          0.936643
   8         V                 0.704679          1.793319
   9         V                 0.744562          2.016383
  10         V                 1.170810          3.049580
  11         V                 1.186420          3.594317
  12         V                 1.268027          2.984997
  13         V                 1.450914          1.889498
  14         V                 1.473927          2.372323
  15         V                 1.658468          2.109298
  16         V                 1.804244          2.203175
  17         V                 1.891430          3.906643
  18         V                 2.149116          3.568484
  19         V                 2.200244          3.481478
  20         V                 3.172600          4.311628
  21         V                 3.209688          4.361670
  22         V                 3.328097          4.488846
  23         V                 3.721354          5.007186
  24         V                 3.985472          5.347676
 Total kinetic energy from orbitals= 7.556012802181D+01
 No NMR shielding tensors so no spin-rotation constants.
 Leave Link  601 at Tue Sep 22 13:39:18 2015, MaxMem=    33554432 cpu:               0.1 elap:               0.1
 (Enter /home/gauss/gdvi01p/gdv/l9999.exe)
 Unable to Open any file for archive entry.
 1\1\GINC-MEDUSA\SP\RHF\CC-pVDZ\H2O1\DBWY\22-Sep-2015\0\\#p hf/cc-pVDZ 
 gfinput pop=full nosymm\\Water cc-pVDZ\\0,1\O,0,0.,-0.0757918436,0.\H,
 0,0.866811829,0.6014357793,0.\H,0,-0.866811829,0.6014357793,0.\\Versio
 n=ES64L-GDVRevI.01+\HF=-75.9897958\RMSD=5.213e-09\Dipole=0.,0.8563522,
 0.\Quadrupole=1.3167715,-0.023114,-1.2936574,0.,0.,0.\PG=C02V [C2(O1),
 SGV(H2)]\\@
 The archive entry for this job was punched.


 I DON'T PRETEND TO UNDERSTAND THE UNIVERSE --
 IT'S A GREAT DEAL BIGGER THAN I AM.
       -- ATTR. TO WILLIAM ALLINGHAM (1828-89)
 Job cpu time:       0 days  0 hours  0 minutes  0.8 seconds.
 Elapsed time:       0 days  0 hours  0 minutes  0.6 seconds.
 File lengths (MBytes):  RWF=      5 Int=      0 D2E=      0 Chk=      1 Scr=      1
 Normal termination of Gaussian DV at Tue Sep 22 13:39:18 2015.
