 Entering Gaussian System, Link 0=gdv
 Input=h2o_ccpVDZ_TD.com
 Output=h2o_ccpVDZ_TD.log
 Initial command:
 /home/gauss/gdvi03p/gdv/l1.exe "/home/GauScr/Gau-2296.inp" -scrdir="/home/GauScr/"
 Entering Link 1 = /home/gauss/gdvi03p/gdv/l1.exe PID=      2297.
  
 Copyright (c) 1988,1990,1992,1993,1995,1998,2003,2009,2015,
            Gaussian, Inc.  All Rights Reserved.
  
 This is the private, development version of
 the Gaussian(R) DV system of programs. It is based on
 the Gaussian(R) 09 system (copyright 2009, Gaussian, Inc.),
 the Gaussian(R) 03 system (copyright 2003, Gaussian, Inc.),
 the Gaussian(R) 98 system (copyright 1998, Gaussian, Inc.),
 the Gaussian(R) 94 system (copyright 1995, Gaussian, Inc.),
 the Gaussian 92(TM) system (copyright 1992, Gaussian, Inc.),
 the Gaussian 90(TM) system (copyright 1990, Gaussian, Inc.),
 the Gaussian 88(TM) system (copyright 1988, Gaussian, Inc.),
 the Gaussian 86(TM) system (copyright 1986, Carnegie Mellon
 University), and the Gaussian 82(TM) system (copyright 1983,
 Carnegie Mellon University). Gaussian is a federally registered
 trademark of Gaussian, Inc.
  
 This software contains proprietary and confidential information,
 including trade secrets, belonging to Gaussian, Inc.
  
 This software is provided under written license and may be
 used, copied, transmitted, or stored only in accord with that
 written license.
  
 The following legend is applicable only to US Government
 contracts under FAR:
  
                    RESTRICTED RIGHTS LEGEND
  
 Use, reproduction and disclosure by the US Government is
 subject to restrictions as set forth in subparagraphs (a)
 and (c) of the Commercial Computer Software - Restricted
 Rights clause in FAR 52.227-19.
  
 Gaussian, Inc.
 340 Quinnipiac St., Bldg. 40, Wallingford CT 06492
  
  
 ---------------------------------------------------------------
 Warning -- This program may not be used in any manner that
 competes with the business of Gaussian, Inc. or will provide
 assistance to any competitor of Gaussian, Inc.  The licensee
 of this program is prohibited from giving any competitor of
 Gaussian, Inc. access to this program.  By using this program,
 the user acknowledges that Gaussian, Inc. is engaged in the
 business of creating and licensing software in the field of
 computational chemistry and represents and warrants to the
 licensee that it is not a competitor of Gaussian, Inc. and that
 it will not use this program in any manner prohibited above.
 ---------------------------------------------------------------
  

 Cite this work as:
 Gaussian Development Version, Revision I.03+,
 M. J. Frisch, G. W. Trucks, H. B. Schlegel, G. E. Scuseria, 
 M. A. Robb, J. R. Cheeseman, G. Scalmani, V. Barone, B. Mennucci, 
 G. A. Petersson, H. Nakatsuji, M. Caricato, X. Li, H. P. Hratchian, 
 J. Bloino, B. G. Janesko, A. F. Izmaylov, A. Marenich, F. Lipparini, 
 G. Zheng, J. L. Sonnenberg, W. Liang, M. Hada, M. Ehara, K. Toyota, 
 R. Fukuda, J. Hasegawa, M. Ishida, T. Nakajima, Y. Honda, O. Kitao, 
 H. Nakai, T. Vreven, K. Throssell, J. A. Montgomery, Jr., 
 J. E. Peralta, F. Ogliaro, M. Bearpark, J. J. Heyd, E. Brothers, 
 K. N. Kudin, V. N. Staroverov, T. Keith, R. Kobayashi, J. Normand, 
 K. Raghavachari, A. Rendell, J. C. Burant, S. S. Iyengar, J. Tomasi, 
 M. Cossi, N. Rega, J. M. Millam, M. Klene, J. E. Knox, J. B. Cross, 
 V. Bakken, C. Adamo, J. Jaramillo, R. Gomperts, R. E. Stratmann, 
 O. Yazyev, A. J. Austin, R. Cammi, C. Pomelli, J. W. Ochterski, 
 R. L. Martin, K. Morokuma, V. G. Zakrzewski, G. A. Voth, 
 P. Salvador, J. J. Dannenberg, S. Dapprich, P. V. Parandekar, 
 N. J. Mayhall, A. D. Daniels, O. Farkas, J. B. Foresman, 
 J. V. Ortiz, J. Cioslowski, and D. J. Fox, 
 Gaussian, Inc., Wallingford CT, 2014.
 
 *******************************************
 Gaussian DV:  ES64L-GDVRevI.03+  2-May-2015
                 28-Oct-2015 
 *******************************************
 %chk=h2o
 %nproc=2
 Will use up to    2 processors via shared memory.
 ------------------------------------
 #p hf/cc-pvdz td(full,nstates=12) 6D
 ------------------------------------
 1/38=1,172=1/1;
 2/12=2,17=6,18=5,40=1/2;
 3/5=16,8=2,11=9,25=1,30=1/1,2,3,8;
 4//1;
 5/5=2,38=5/2;
 8/6=1,10=90,108=12/1,4;
 9/41=12,42=3,70=2/14;
 6/7=2,8=2,9=2,10=2/1;
 99/5=1,9=1/99;
 Leave Link    1 at Wed Oct 28 10:22:18 2015, MaxMem=           0 cpu:               0.1 elap:               0.0
 (Enter /home/gauss/gdvi03p/gdv/l101.exe)
 --------------
 Water singlets
 --------------
 Symbolic Z-matrix:
 Charge =  0 Multiplicity = 1
 O                     0.       -0.07579   0. 
 H                     0.86681   0.60144   0. 
 H                    -0.86681   0.60144   0. 
 
 ITRead=  0  0  0
 MicOpt= -1 -1 -1
 NAtoms=      3 NQM=        3 NQMF=       0 NMMI=      0 NMMIF=      0
                NMic=       0 NMicF=      0.
                    Isotopes and Nuclear Properties:
 (Nuclear quadrupole moments (NQMom) in fm**2, nuclear magnetic moments (NMagM)
  in nuclear magnetons)

  Atom         1           2           3
 IAtWgt=          16           1           1
 AtmWgt=  15.9949146   1.0078250   1.0078250
 NucSpn=           0           1           1
 AtZEff=   0.0000000   0.0000000   0.0000000
 NQMom=    0.0000000   0.0000000   0.0000000
 NMagM=    0.0000000   2.7928460   2.7928460
 AtZNuc=   8.0000000   1.0000000   1.0000000
 Leave Link  101 at Wed Oct 28 10:22:18 2015, MaxMem=    33554432 cpu:               0.2 elap:               0.1
 (Enter /home/gauss/gdvi03p/gdv/l202.exe)
                          Input orientation:                          
 ---------------------------------------------------------------------
 Center     Atomic      Atomic             Coordinates (Angstroms)
 Number     Number       Type             X           Y           Z
 ---------------------------------------------------------------------
      1          8           0        0.000000   -0.075792    0.000000
      2          1           0        0.866812    0.601436    0.000000
      3          1           0       -0.866812    0.601436    0.000000
 ---------------------------------------------------------------------
                    Distance matrix (angstroms):
                    1          2          3
     1  O    0.000000
     2  H    1.100000   0.000000
     3  H    1.100000   1.733624   0.000000
 Stoichiometry    H2O
 Framework group  C2V[C2(O),SGV(H2)]
 Deg. of freedom     2
 Full point group                 C2V     NOp   4
 Largest Abelian subgroup         C2V     NOp   4
 Largest concise Abelian subgroup C2      NOp   2
                         Standard orientation:                         
 ---------------------------------------------------------------------
 Center     Atomic      Atomic             Coordinates (Angstroms)
 Number     Number       Type             X           Y           Z
 ---------------------------------------------------------------------
      1          8           0        0.000000    0.000000    0.135446
      2          1           0        0.000000    0.866812   -0.541782
      3          1           0        0.000000   -0.866812   -0.541782
 ---------------------------------------------------------------------
 Rotational constants (GHZ):    615.5709784    333.6970768    216.3922350
 Leave Link  202 at Wed Oct 28 10:22:18 2015, MaxMem=    33554432 cpu:               0.0 elap:               0.0
 (Enter /home/gauss/gdvi03p/gdv/l301.exe)
 Standard basis: CC-pVDZ (6D, 7F)
 Ernie: Thresh=  0.10000D-02 Tol=  0.10000D-05 Strict=F.
 Ernie:  2 primitive shells out of 32 were deleted.
 There are    12 symmetry adapted cartesian basis functions of A1  symmetry.
 There are     2 symmetry adapted cartesian basis functions of A2  symmetry.
 There are     4 symmetry adapted cartesian basis functions of B1  symmetry.
 There are     7 symmetry adapted cartesian basis functions of B2  symmetry.
 There are    12 symmetry adapted basis functions of A1  symmetry.
 There are     2 symmetry adapted basis functions of A2  symmetry.
 There are     4 symmetry adapted basis functions of B1  symmetry.
 There are     7 symmetry adapted basis functions of B2  symmetry.
    25 basis functions,    47 primitive gaussians,    25 cartesian basis functions
     5 alpha electrons        5 beta electrons
       nuclear repulsion energy         8.0023664856 Hartrees.
 IExCor=    0 DFT=F Ex=HF Corr=None ExCW=0 ScaHFX=  1.000000
 ScaDFX=  1.000000  1.000000  1.000000  1.000000 ScalE2=  1.000000  1.000000
 IRadAn=      0 IRanWt=     -1 IRanGd=            0 ICorTp=0 IEmpDi=  4
 NAtoms=    3 NActive=    3 NUniq=    2 SFac= 2.25D+00 NAtFMM=   60 NAOKFM=F Big=F
 Integral buffers will be    131072 words long.
 Raffenetti 1 integral format.
 Two-electron integral symmetry is turned on.
 Leave Link  301 at Wed Oct 28 10:22:18 2015, MaxMem=    33554432 cpu:               0.1 elap:               0.0
 (Enter /home/gauss/gdvi03p/gdv/l302.exe)
 NPDir=0 NMtPBC=     1 NCelOv=     1 NCel=       1 NClECP=     1 NCelD=      1
         NCelK=      1 NCelE2=     1 NClLst=     1 CellRange=     0.0.
 One-electron integrals computed using PRISM.
 One-electron integral symmetry used in STVInt
 NBasis=    25 RedAO= T EigKep=  3.91D-02  NBF=    12     2     4     7
 NBsUse=    25 1.00D-06 EigRej= -1.00D+00 NBFU=    12     2     4     7
 Leave Link  302 at Wed Oct 28 10:22:18 2015, MaxMem=    33554432 cpu:               0.2 elap:               0.1
 (Enter /home/gauss/gdvi03p/gdv/l303.exe)
 DipDrv:  MaxL=1.
 Leave Link  303 at Wed Oct 28 10:22:18 2015, MaxMem=    33554432 cpu:               0.0 elap:               0.0
 (Enter /home/gauss/gdvi03p/gdv/l308.exe)
 Leave Link  308 at Wed Oct 28 10:22:18 2015, MaxMem=    33554432 cpu:               0.0 elap:               0.0
 (Enter /home/gauss/gdvi03p/gdv/l401.exe)
 ExpMin= 1.22D-01 ExpMax= 1.17D+04 ExpMxC= 4.01D+02 IAcc=1 IRadAn=         1 AccDes= 0.00D+00
 Harris functional with IExCor=  205 and IRadAn=       1 diagonalized for initial guess.
 HarFok:  IExCor=  205 AccDes= 0.00D+00 IRadAn=         1 IDoV= 1 UseB2=F ITyADJ=14
 ICtDFT=  3500011 ScaDFX=  1.000000  1.000000  1.000000  1.000000
 FoFCou: FMM=F IPFlag=           0 FMFlag=      100000 FMFlg1=           0
         NFxFlg=           0 DoJE=T BraDBF=F KetDBF=T FulRan=T
         wScrn=  0.000000 ICntrl=       500 IOpCl=  0 I1Cent=   200000004 NGrid=           0
         NMat0=    1 NMatS0=      1 NMatT0=    0 NMatD0=    1 NMtDS0=    0 NMtDT0=    0
 Petite list used in FoFCou.
 Harris En= -76.0876687667385    
 JPrj=0 DoOrth=F DoCkMO=F.
 Initial guess orbital symmetries:
       Occupied  (A1) (A1) (B2) (A1) (B1)
       Virtual   (A1) (B2) (B2) (A1) (B1) (A1) (B2) (A1) (A2) (B1)
                 (A1) (B2) (B2) (A1) (B1) (A2) (A1) (A1) (B2) (A1)
 The electronic state of the initial guess is 1-A1.
 Leave Link  401 at Wed Oct 28 10:22:19 2015, MaxMem=    33554432 cpu:               0.2 elap:               0.1
 (Enter /home/gauss/gdvi03p/gdv/l502.exe)
 Keep R1 ints in memory in symmetry-blocked form, NReq=886507.
 FoFCou: FMM=F IPFlag=           0 FMFlag=           0 FMFlg1=           0
         NFxFlg=           0 DoJE=F BraDBF=F KetDBF=F FulRan=T
         wScrn=  0.000000 ICntrl=       600 IOpCl=  0 I1Cent=           0 NGrid=           0
         NMat0=    1 NMatS0=    325 NMatT0=    0 NMatD0=    1 NMtDS0=    0 NMtDT0=    0
 Petite list used in FoFCou.
 Closed shell SCF:
 Using DIIS extrapolation, IDIIS=  1040.
 NGot=    33554432 LenX=    33536280 LenY=    33535214
 Requested convergence on RMS density matrix=1.00D-08 within 128 cycles.
 Requested convergence on MAX density matrix=1.00D-06.
 Requested convergence on             energy=1.00D-06.
 No special actions if energy rises.

 Cycle   1  Pass 1  IDiag  1:
 E= -75.9081697665013    
 DIIS: error= 7.47D-02 at cycle   1 NSaved=   1.
 NSaved= 1 IEnMin= 1 EnMin= -75.9081697665013     IErMin= 1 ErrMin= 7.47D-02
 ErrMax= 7.47D-02  0.00D+00 EMaxC= 1.00D-01 BMatC= 1.39D-01 BMatP= 1.39D-01
 IDIUse=3 WtCom= 2.53D-01 WtEn= 7.47D-01
 Coeff-Com:  0.100D+01
 Coeff-En:   0.100D+01
 Coeff:      0.100D+01
 Gap=     0.518 Goal=   None    Shift=    0.000
 GapD=    0.518 DampG=2.000 DampE=0.500 DampFc=1.0000 IDamp=-1.
 RMSDP=1.14D-02 MaxDP=1.18D-01              OVMax= 1.44D-01

 Cycle   2  Pass 1  IDiag  1:
 E= -75.9578170545368     Delta-E=       -0.049647288035 Rises=F Damp=F
 DIIS: error= 3.74D-02 at cycle   2 NSaved=   2.
 NSaved= 2 IEnMin= 2 EnMin= -75.9578170545368     IErMin= 2 ErrMin= 3.74D-02
 ErrMax= 3.74D-02  0.00D+00 EMaxC= 1.00D-01 BMatC= 4.87D-02 BMatP= 1.39D-01
 IDIUse=3 WtCom= 6.26D-01 WtEn= 3.74D-01
 Coeff-Com:  0.348D+00 0.652D+00
 Coeff-En:   0.178D+00 0.822D+00
 Coeff:      0.284D+00 0.716D+00
 Gap=     0.655 Goal=   None    Shift=    0.000
 RMSDP=5.63D-03 MaxDP=5.88D-02 DE=-4.96D-02 OVMax= 5.61D-02

 Cycle   3  Pass 1  IDiag  1:
 E= -75.9887646469681     Delta-E=       -0.030947592431 Rises=F Damp=F
 DIIS: error= 8.02D-03 at cycle   3 NSaved=   3.
 NSaved= 3 IEnMin= 3 EnMin= -75.9887646469681     IErMin= 3 ErrMin= 8.02D-03
 ErrMax= 8.02D-03  0.00D+00 EMaxC= 1.00D-01 BMatC= 1.70D-03 BMatP= 4.87D-02
 IDIUse=3 WtCom= 9.20D-01 WtEn= 8.02D-02
 Coeff-Com: -0.289D-01 0.126D+00 0.903D+00
 Coeff-En:   0.000D+00 0.000D+00 0.100D+01
 Coeff:     -0.265D-01 0.116D+00 0.910D+00
 Gap=     0.637 Goal=   None    Shift=    0.000
 RMSDP=9.83D-04 MaxDP=1.11D-02 DE=-3.09D-02 OVMax= 1.39D-02

 Cycle   4  Pass 1  IDiag  1:
 E= -75.9901424775056     Delta-E=       -0.001377830538 Rises=F Damp=F
 DIIS: error= 1.26D-03 at cycle   4 NSaved=   4.
 NSaved= 4 IEnMin= 4 EnMin= -75.9901424775056     IErMin= 4 ErrMin= 1.26D-03
 ErrMax= 1.26D-03  0.00D+00 EMaxC= 1.00D-01 BMatC= 2.86D-05 BMatP= 1.70D-03
 IDIUse=3 WtCom= 9.87D-01 WtEn= 1.26D-02
 Coeff-Com:  0.704D-02-0.662D-01-0.280D+00 0.134D+01
 Coeff-En:   0.000D+00 0.000D+00 0.000D+00 0.100D+01
 Coeff:      0.695D-02-0.653D-01-0.276D+00 0.133D+01
 Gap=     0.642 Goal=   None    Shift=    0.000
 RMSDP=2.10D-04 MaxDP=2.84D-03 DE=-1.38D-03 OVMax= 2.39D-03

 Cycle   5  Pass 1  IDiag  1:
 E= -75.9901775922144     Delta-E=       -0.000035114709 Rises=F Damp=F
 DIIS: error= 1.78D-04 at cycle   5 NSaved=   5.
 NSaved= 5 IEnMin= 5 EnMin= -75.9901775922144     IErMin= 5 ErrMin= 1.78D-04
 ErrMax= 1.78D-04  0.00D+00 EMaxC= 1.00D-01 BMatC= 5.06D-07 BMatP= 2.86D-05
 IDIUse=3 WtCom= 9.98D-01 WtEn= 1.78D-03
 Coeff-Com:  0.540D-03 0.153D-02-0.187D-02-0.161D+00 0.116D+01
 Coeff-En:   0.000D+00 0.000D+00 0.000D+00 0.000D+00 0.100D+01
 Coeff:      0.539D-03 0.153D-02-0.187D-02-0.160D+00 0.116D+01
 Gap=     0.642 Goal=   None    Shift=    0.000
 RMSDP=4.40D-05 MaxDP=5.22D-04 DE=-3.51D-05 OVMax= 5.69D-04

 Cycle   6  Pass 1  IDiag  1:
 E= -75.9901786933632     Delta-E=       -0.000001101149 Rises=F Damp=F
 DIIS: error= 3.33D-05 at cycle   6 NSaved=   6.
 NSaved= 6 IEnMin= 6 EnMin= -75.9901786933632     IErMin= 6 ErrMin= 3.33D-05
 ErrMax= 3.33D-05  0.00D+00 EMaxC= 1.00D-01 BMatC= 1.93D-08 BMatP= 5.06D-07
 IDIUse=1 WtCom= 1.00D+00 WtEn= 0.00D+00
 Coeff-Com: -0.344D-03 0.202D-02 0.107D-01-0.178D-01-0.274D+00 0.128D+01
 Coeff:     -0.344D-03 0.202D-02 0.107D-01-0.178D-01-0.274D+00 0.128D+01
 Gap=     0.642 Goal=   None    Shift=    0.000
 RMSDP=1.17D-05 MaxDP=1.08D-04 DE=-1.10D-06 OVMax= 1.65D-04

 Cycle   7  Pass 1  IDiag  1:
 E= -75.9901787459146     Delta-E=       -0.000000052551 Rises=F Damp=F
 DIIS: error= 7.20D-06 at cycle   7 NSaved=   7.
 NSaved= 7 IEnMin= 7 EnMin= -75.9901787459146     IErMin= 7 ErrMin= 7.20D-06
 ErrMax= 7.20D-06  0.00D+00 EMaxC= 1.00D-01 BMatC= 9.28D-10 BMatP= 1.93D-08
 IDIUse=1 WtCom= 1.00D+00 WtEn= 0.00D+00
 Coeff-Com:  0.157D-03-0.110D-02-0.555D-02 0.148D-01 0.110D+00-0.644D+00
 Coeff-Com:  0.153D+01
 Coeff:      0.157D-03-0.110D-02-0.555D-02 0.148D-01 0.110D+00-0.644D+00
 Coeff:      0.153D+01
 Gap=     0.642 Goal=   None    Shift=    0.000
 RMSDP=2.44D-06 MaxDP=2.74D-05 DE=-5.26D-08 OVMax= 3.87D-05

 Cycle   8  Pass 1  IDiag  1:
 E= -75.9901787490530     Delta-E=       -0.000000003138 Rises=F Damp=F
 DIIS: error= 1.65D-06 at cycle   8 NSaved=   8.
 NSaved= 8 IEnMin= 8 EnMin= -75.9901787490530     IErMin= 8 ErrMin= 1.65D-06
 ErrMax= 1.65D-06  0.00D+00 EMaxC= 1.00D-01 BMatC= 5.05D-11 BMatP= 9.28D-10
 IDIUse=1 WtCom= 1.00D+00 WtEn= 0.00D+00
 Coeff-Com: -0.278D-04 0.234D-03 0.117D-02-0.453D-02-0.135D-01 0.115D+00
 Coeff-Com: -0.484D+00 0.139D+01
 Coeff:     -0.278D-04 0.234D-03 0.117D-02-0.453D-02-0.135D-01 0.115D+00
 Coeff:     -0.484D+00 0.139D+01
 Gap=     0.642 Goal=   None    Shift=    0.000
 RMSDP=6.34D-07 MaxDP=5.34D-06 DE=-3.14D-09 OVMax= 1.01D-05

 Cycle   9  Pass 1  IDiag  1:
 E= -75.9901787492202     Delta-E=       -0.000000000167 Rises=F Damp=F
 DIIS: error= 2.35D-07 at cycle   9 NSaved=   9.
 NSaved= 9 IEnMin= 9 EnMin= -75.9901787492202     IErMin= 9 ErrMin= 2.35D-07
 ErrMax= 2.35D-07  0.00D+00 EMaxC= 1.00D-01 BMatC= 6.59D-13 BMatP= 5.05D-11
 IDIUse=1 WtCom= 1.00D+00 WtEn= 0.00D+00
 Coeff-Com:  0.253D-05-0.257D-04-0.136D-03 0.657D-03 0.102D-02-0.131D-01
 Coeff-Com:  0.820D-01-0.361D+00 0.129D+01
 Coeff:      0.253D-05-0.257D-04-0.136D-03 0.657D-03 0.102D-02-0.131D-01
 Coeff:      0.820D-01-0.361D+00 0.129D+01
 Gap=     0.642 Goal=   None    Shift=    0.000
 RMSDP=7.90D-08 MaxDP=5.17D-07 DE=-1.67D-10 OVMax= 1.26D-06

 Cycle  10  Pass 1  IDiag  1:
 E= -75.9901787492221     Delta-E=       -0.000000000002 Rises=F Damp=F
 DIIS: error= 2.06D-08 at cycle  10 NSaved=  10.
 NSaved=10 IEnMin=10 EnMin= -75.9901787492221     IErMin=10 ErrMin= 2.06D-08
 ErrMax= 2.06D-08  0.00D+00 EMaxC= 1.00D-01 BMatC= 7.43D-15 BMatP= 6.59D-13
 IDIUse=1 WtCom= 1.00D+00 WtEn= 0.00D+00
 Coeff-Com: -0.213D-06 0.294D-05 0.170D-04-0.103D-03-0.476D-04 0.160D-02
 Coeff-Com: -0.128D-01 0.616D-01-0.265D+00 0.121D+01
 Coeff:     -0.213D-06 0.294D-05 0.170D-04-0.103D-03-0.476D-04 0.160D-02
 Coeff:     -0.128D-01 0.616D-01-0.265D+00 0.121D+01
 Gap=     0.642 Goal=   None    Shift=    0.000
 RMSDP=6.58D-09 MaxDP=4.78D-08 DE=-1.86D-12 OVMax= 9.09D-08

 SCF Done:  E(RHF) =  -75.9901787492     A.U. after   10 cycles
            NFock= 10  Conv=0.66D-08     -V/T= 2.0062
 KE= 7.552488813210D+01 PE=-1.964836464046D+02 EE= 3.696621303765D+01
 Leave Link  502 at Wed Oct 28 10:22:19 2015, MaxMem=    33554432 cpu:               0.2 elap:               0.1
 (Enter /home/gauss/gdvi03p/gdv/l801.exe)
 Range of M.O.s used for correlation:     1    25
 NBasis=    25 NAE=     5 NBE=     5 NFC=     0 NFV=     0
 NROrb=     25 NOA=     5 NOB=     5 NVA=    20 NVB=    20
 Leave Link  801 at Wed Oct 28 10:22:19 2015, MaxMem=    33554432 cpu:               0.0 elap:               0.0
 (Enter /home/gauss/gdvi03p/gdv/l804.exe)
 Closed-shell transformation, MDV=    33554432 ITran=3 ISComp=1.
 Unit  1 TFree=         22905 TCopy=        180448.
 Semi-Direct transformation.
 ModeAB=           4 MOrb=             5 LenV=      33367179
 LASXX=        12955 LTotXX=       12955 LenRXX=       27830
 LTotAB=       14875 MaxLAS=       31500 LenRXY=           0
 NonZer=       40785 LenScr=      785920 LnRSAI=       31500
 LnScr1=      785920 LExtra=           0 Total=      1631170
 MaxDsk=          -1 SrtSym=           T ITran=            3
 DoSDTr:  NPSUse=  2
 JobTyp=0 Pass  1:  I=   1 to   5.
 (rs|ai) integrals will be sorted in core.
 Complete sort for first half transformation.
 First half transformation complete.
 Complete sort for second half transformation.
 Second half transformation complete.
 Spin components of T(2) and E(2):
     alpha-alpha T2 =       0.7057227673D-02 E2=     -0.2685064057D-01
     alpha-beta  T2 =       0.4499775910D-01 E2=     -0.1640496514D+00
     beta-beta   T2 =       0.7057227673D-02 E2=     -0.2685064057D-01
 ANorm=    0.1029131777D+01
 E2 =    -0.2177509325D+00 EUMP2 =    -0.76207929681724D+02
 Leave Link  804 at Wed Oct 28 10:22:19 2015, MaxMem=    33554432 cpu:               0.1 elap:               0.1
 (Enter /home/gauss/gdvi03p/gdv/l914.exe)
 RHF ground state
 MDV=    33554432 DFT=F DoStab=F Mixed=F DoRPA=T DoScal=F NonHer=T
 Making orbital integer symmetry assigments:
 Orbital symmetries:
       Occupied  (A1) (A1) (B2) (A1) (B1)
       Virtual   (A1) (B2) (B2) (A1) (A1) (B1) (B2) (A1) (A2) (B1)
                 (A1) (B2) (B2) (A1) (B1) (A2) (A1) (A1) (B2) (A1)
 FoFJK:  IHMeth= 1 ICntrl=       0 DoSepK=F KAlg= 0 I1Cent=           0 FoldK=F
 IRaf=         0 NMat=       1 IRICut=       1 DoRegI=T DoRafI=F ISym2E= 1 IDoP0=0 IntGTp=1.
 FoFCou: FMM=F IPFlag=           0 FMFlag=      100000 FMFlg1=           0
         NFxFlg=           0 DoJE=F BraDBF=F KetDBF=F FulRan=T
         wScrn=  0.000000 ICntrl=         0 IOpCl=  1 I1Cent=           0 NGrid=           0
         NMat0=    1 NMatS0=      1 NMatT0=    0 NMatD0=    1 NMtDS0=    0 NMtDT0=    0
 Petite list used in FoFCou.
    48 initial guesses have been made.
 Convergence on wavefunction:    0.001000000000000
 Davidson Disk Diagonalization:  ConvIn= 1.00D-03 SkipCon=T Conv= 1.00D-03.
 Max sub-space:   200 roots to seek:    48 dimension of matrix:          200
 Iteration     1 Dimension    48 NMult     0 NNew     48
 New state      2 was old state      3
 New state      3 was old state      2
 Excitation Energies [eV] at current iteration:
 Root      1 :     7.593220674203915
 Root      2 :     9.089760428452223
 Root      3 :    10.225548094488640
 Root      4 :    11.599917591407800
 Root      5 :    12.412128019258950
 Root      6 :    15.784209874184160
 Root      7 :    21.889022586538260
 Root      8 :    22.894294000976060
 Root      9 :    24.614076463271340
 Root     10 :    25.142812019730390
 Root     11 :    27.247360020411320
 Root     12 :    28.054116091453680
 Root     13 :    29.884787603709700
 Root     14 :    30.845817933032230
 Root     15 :    31.555148920141300
 Root     16 :    31.992750979777450
 Root     17 :    32.582853810917650
 Root     18 :    33.891599719563120
 Root     19 :    35.734491780598430
 Root     20 :    35.846989073413690
 Root     21 :    36.709179548972680
 Root     22 :    37.096087402114560
 Root     23 :    40.310870964293660
 Root     24 :    42.219780995880220
 Root     25 :    42.625265520482030
 Root     26 :    43.208560297476160
 Root     27 :    43.584449348610060
 Root     28 :    43.737714528560920
 Root     29 :    45.573041301018090
 Root     30 :    45.840047120468450
 Root     31 :    46.179387432153970
 Root     32 :    48.203765040517140
 Root     33 :    48.232730031388140
 Root     34 :    49.657129105774460
 Root     35 :    50.887828625161530
 Root     36 :    51.050985529235500
 Root     37 :    51.528369375383380
 Root     38 :    52.346914526055370
 Root     39 :    52.835403068455530
 Root     40 :    53.078710600951370
 Root     41 :    53.330103246069480
 Root     42 :    55.525202557118850
 Root     43 :    56.379976634737470
 Root     44 :    58.613101457566190
 Root     45 :    61.536794708271790
 Root     46 :    61.723978657561120
 Root     47 :    62.463232199570870
 Root     48 :    63.059072735605640
 Iteration     2 Dimension    72 NMult    48 NNew     24
 Root      1 not converged, maximum delta is    0.009622594736404
 Root      2 not converged, maximum delta is    0.004184066606044
 Root      3 not converged, maximum delta is    0.009167875817669
 Root      4 not converged, maximum delta is    0.011107124468846
 Root      5 not converged, maximum delta is    0.009161535009995
 Root      6 not converged, maximum delta is    0.018445158746510
 Root      7 not converged, maximum delta is    0.006385792928487
 Root      8 not converged, maximum delta is    0.011289981630944
 Root      9 not converged, maximum delta is    0.013534094957490
 Root     10 not converged, maximum delta is    0.011041756287850
 Root     11 not converged, maximum delta is    0.030237252556514
 Root     12 not converged, maximum delta is    0.031059881135442
 Excitation Energies [eV] at current iteration:
 Root      1 :     7.566469269437611   Change is   -0.026751404766304
 Root      2 :     9.084245466244209   Change is   -0.005514962208014
 Root      3 :    10.209708473938010   Change is   -0.015839620550627
 Root      4 :    11.564331692739100   Change is   -0.035585898668702
 Root      5 :    12.387724192684430   Change is   -0.024403826574514
 Root      6 :    15.722497764414130   Change is   -0.061712109770028
 Root      7 :    21.881608620539790   Change is   -0.007413965998469
 Root      8 :    22.857731011884470   Change is   -0.036562989091586
 Root      9 :    24.558150812633280   Change is   -0.055925650638054
 Root     10 :    25.117349223402770   Change is   -0.025462796327621
 Root     11 :    27.127037819061830   Change is   -0.120322201349486
 Root     12 :    27.933085203747900   Change is   -0.121030887705775
 Iteration     3 Dimension    94 NMult    72 NNew     22
 Root      1 has converged.
 Root      2 has converged.
 Root      3 has converged.
 Root      4 has converged.
 Root      5 has converged.
 Root      6 has converged.
 Root      7 has converged.
 Root      8 has converged.
 Root      9 has converged.
 Root     10 has converged.
 Root     11 has converged.
 Root     12 has converged.
 Excitation Energies [eV] at current iteration:
 Root      1 :     7.566453811238548   Change is   -0.000015458199063
 Root      2 :     9.084244481644674   Change is   -0.000000984599535
 Root      3 :    10.209705824641820   Change is   -0.000002649296192
 Root      4 :    11.564319252375690   Change is   -0.000012440363411
 Root      5 :    12.387707452416960   Change is   -0.000016740267472
 Root      6 :    15.722455931886890   Change is   -0.000041832527237
 Root      7 :    21.881608097174720   Change is   -0.000000523365066
 Root      8 :    22.857686329936130   Change is   -0.000044681948348
 Root      9 :    24.558117982546220   Change is   -0.000032830087066
 Root     10 :    25.117312575599190   Change is   -0.000036647803573
 Root     11 :    27.126926902060060   Change is   -0.000110917001769
 Root     12 :    27.932875101200290   Change is   -0.000210102547614
 Convergence achieved on expansion vectors.
 ***********************************************************************
 Excited states from <AA,BB:AA,BB> singles matrix:
 ***********************************************************************
 
 1PDM for each excited state written to RWF  633
 Ground to excited state transition densities written to RWF  633
 Ground to excited state transition electric dipole moments (Au):
       state          X           Y           Z        Dip. S.      Osc.
         1         0.2722      0.0000      0.0000      0.0741      0.0137
         2         0.0000      0.0000      0.0000      0.0000      0.0000
         3         0.0000      0.0000      0.6261      0.3921      0.0981
         4         0.0000      0.3909      0.0000      0.1528      0.0433
         5         0.0000      1.2694      0.0000      1.6113      0.4890
         6         0.0000      0.0000      0.7702      0.5933      0.2285
         7         0.0000      0.0000      0.0000      0.0000      0.0000
         8         0.3720      0.0000      0.0000      0.1384      0.0775
         9         0.0000      0.3567      0.0000      0.1272      0.0765
        10         0.0000      0.0000      0.0204      0.0004      0.0003
        11         0.0000      0.0000      0.5463      0.2985      0.1984
        12         0.0000     -0.5976      0.0000      0.3571      0.2444
 Ground to excited state transition velocity dipole moments (Au):
       state          X           Y           Z        Dip. S.      Osc.
         1        -0.1706      0.0000      0.0000      0.0291      0.0698
         2         0.0000      0.0000      0.0000      0.0000      0.0000
         3         0.0000      0.0000     -0.3067      0.0941      0.1672
         4         0.0000     -0.1650      0.0000      0.0272      0.0427
         5         0.0000     -0.5860      0.0000      0.3434      0.5029
         6         0.0000      0.0000     -0.4583      0.2100      0.2423
         7         0.0000      0.0000      0.0000      0.0000      0.0000
         8        -0.2924      0.0000      0.0000      0.0855      0.0678
         9         0.0000     -0.3043      0.0000      0.0926      0.0684
        10         0.0000      0.0000     -0.0581      0.0034      0.0024
        11         0.0000      0.0000     -0.4942      0.2443      0.1634
        12         0.0000      0.5395      0.0000      0.2911      0.1890
 Ground to excited state transition magnetic dipole moments (Au):
       state          X           Y           Z
         1         0.0000      0.3008      0.0000
         2         0.0000      0.0000     -0.4092
         3         0.0000      0.0000      0.0000
         4         0.4822      0.0000      0.0000
         5        -0.0317      0.0000      0.0000
         6         0.0000      0.0000      0.0000
         7         0.0000      0.0000     -0.2020
         8         0.0000     -0.2185      0.0000
         9         0.5030      0.0000      0.0000
        10         0.0000      0.0000      0.0000
        11         0.0000      0.0000      0.0000
        12         0.0939      0.0000      0.0000
 Ground to excited state transition velocity quadrupole moments (Au):
       state          XX          YY          ZZ          XY          XZ          YZ
         1         0.0000      0.0000      0.0000      0.0000      0.0742      0.0000
         2         0.0000      0.0000      0.0000      0.1848      0.0000      0.0000
         3         0.0362      0.2528      0.2548      0.0000      0.0000      0.0000
         4         0.0000      0.0000      0.0000      0.0000      0.0000      0.3131
         5         0.0000      0.0000      0.0000      0.0000      0.0000      0.5705
         6         0.1937      1.4426      0.5188      0.0000      0.0000      0.0000
         7         0.0000      0.0000      0.0000     -0.4587      0.0000      0.0000
         8         0.0000      0.0000      0.0000      0.0000      0.0567      0.0000
         9         0.0000      0.0000      0.0000      0.0000      0.0000     -0.0967
        10         0.3316     -0.5167      0.3795      0.0000      0.0000      0.0000
        11        -0.7903     -0.3796     -0.1814      0.0000      0.0000      0.0000
        12         0.0000      0.0000      0.0000      0.0000      0.0000     -0.7535
 <0|del|b> * <b|rxdel|0> + <0|del|b> * <b|delr+rdel|0>
 Rotatory Strengths (R) in cgs (10**-40 erg-esu-cm/Gauss)
       state          XX          YY          ZZ    R(velocity)    E-M Angle
         1         0.0000      0.0000      0.0000      0.0000       90.00
         2         0.0000      0.0000      0.0000      0.0000       90.00
         3         0.0000      0.0000      0.0000      0.0000       90.00
         4         0.0000      0.0000      0.0000      0.0000       90.00
         5         0.0000      0.0000      0.0000      0.0000       90.00
         6         0.0000      0.0000      0.0000      0.0000       90.00
         7         0.0000      0.0000      0.0000      0.0000       90.00
         8         0.0000      0.0000      0.0000      0.0000       90.00
         9         0.0000      0.0000      0.0000      0.0000       90.00
        10         0.0000      0.0000      0.0000      0.0000       90.00
        11         0.0000      0.0000      0.0000      0.0000       90.00
        12         0.0000      0.0000      0.0000      0.0000       90.00
 1/2[<0|r|b>*<b|rxdel|0> + (<0|rxdel|b>*<b|r|0>)*]
 Rotatory Strengths (R) in cgs (10**-40 erg-esu-cm/Gauss)
       state          XX          YY          ZZ     R(length)
         1         0.0000      0.0000      0.0000      0.0000
         2         0.0000      0.0000      0.0000      0.0000
         3         0.0000      0.0000      0.0000      0.0000
         4         0.0000      0.0000      0.0000      0.0000
         5         0.0000      0.0000      0.0000      0.0000
         6         0.0000      0.0000      0.0000      0.0000
         7         0.0000      0.0000      0.0000      0.0000
         8         0.0000      0.0000      0.0000      0.0000
         9         0.0000      0.0000      0.0000      0.0000
        10         0.0000      0.0000      0.0000      0.0000
        11         0.0000      0.0000      0.0000      0.0000
        12         0.0000      0.0000      0.0000      0.0000
  1/2[<0|del|b>*<b|r|0> + (<0|r|b>*<b|del|0>)*] (Au)
       state          X           Y           Z        Dip. S.   Osc.(frdel)
         1        -0.0465      0.0000      0.0000      0.0465      0.0310
         2         0.0000      0.0000      0.0000      0.0000      0.0000
         3         0.0000      0.0000     -0.1920      0.1920      0.1280
         4         0.0000     -0.0645      0.0000      0.0645      0.0430
         5         0.0000     -0.7439      0.0000      0.7439      0.4959
         6         0.0000      0.0000     -0.3530      0.3530      0.2353
         7         0.0000      0.0000      0.0000      0.0000      0.0000
         8        -0.1087      0.0000      0.0000      0.1087      0.0725
         9         0.0000     -0.1085      0.0000      0.1085      0.0723
        10         0.0000      0.0000     -0.0012      0.0012      0.0008
        11         0.0000      0.0000     -0.2700      0.2700      0.1800
        12         0.0000     -0.3224      0.0000      0.3224      0.2149

 Excitation energies and oscillator strengths:
 
 Excited State   1:      Singlet-B1     7.5665 eV  163.86 nm  f=0.0137  <S**2>=0.000
       5 ->  6         0.69564
       5 ->  9        -0.11594
 This state for optimization and/or second-order correction.
 Total Energy, E(TD-HF/TD-KS) =  -75.7121166880    
 Copying the excited state density for this state as the 1-particle RhoCI density.
 
 Excited State   2:      Singlet-A2     9.0842 eV  136.48 nm  f=0.0000  <S**2>=0.000
       5 ->  7         0.68396
       5 ->  8         0.16158
 
 Excited State   3:      Singlet-A1    10.2097 eV  121.44 nm  f=0.0981  <S**2>=0.000
       3 ->  7        -0.11619
       4 ->  6         0.68999
 
 Excited State   4:      Singlet-B2    11.5643 eV  107.21 nm  f=0.0433  <S**2>=0.000
       3 ->  6        -0.22727
       4 ->  7         0.65460
       4 ->  8         0.11379
 
 Excited State   5:      Singlet-B2    12.3877 eV  100.09 nm  f=0.4890  <S**2>=0.000
       3 ->  6         0.66328
       4 ->  7         0.23203
 
 Excited State   6:      Singlet-A1    15.7225 eV   78.86 nm  f=0.2285  <S**2>=0.000
       3 ->  7         0.68497
       4 ->  6         0.12385
 
 Excited State   7:      Singlet-A2    21.8816 eV   56.66 nm  f=0.0000  <S**2>=0.000
       5 ->  7        -0.16370
       5 ->  8         0.68649
 
 Excited State   8:      Singlet-B1    22.8577 eV   54.24 nm  f=0.0775  <S**2>=0.000
       5 ->  6         0.12147
       5 ->  9         0.68836
 
 Excited State   9:      Singlet-B2    24.5581 eV   50.49 nm  f=0.0765  <S**2>=0.000
       3 ->  9         0.13407
       4 ->  7        -0.11543
       4 ->  8         0.68066
 
 Excited State  10:      Singlet-A1    25.1173 eV   49.36 nm  f=0.0003  <S**2>=0.000
       4 ->  9         0.68611
 
 Excited State  11:      Singlet-A1    27.1269 eV   45.71 nm  f=0.1984  <S**2>=0.000
       3 ->  8         0.68450
       5 -> 11         0.11964
 
 Excited State  12:      Singlet-B2    27.9329 eV   44.39 nm  f=0.2444  <S**2>=0.000
       3 ->  9         0.67813
       4 ->  8        -0.13359
 SavETr:  write IOETrn=   770 NScale= 10 NData=  16 NLR=1 NState=   12 LETran=     226.
 Leave Link  914 at Wed Oct 28 10:22:19 2015, MaxMem=    33554432 cpu:               0.3 elap:               0.1
 (Enter /home/gauss/gdvi03p/gdv/l601.exe)
 Copying SCF densities to generalized density rwf, IOpCl= 0 IROHF=0.

 **********************************************************************

            Population analysis using the SCF density.

 **********************************************************************

 Orbital symmetries:
       Occupied  (A1) (A1) (B2) (A1) (B1)
       Virtual   (A1) (B2) (B2) (A1) (A1) (B1) (B2) (A1) (A2) (B1)
                 (A1) (B2) (B2) (A1) (B1) (A2) (A1) (A1) (B2) (A1)
 The electronic state is 1-A1.
 Alpha  occ. eigenvalues --  -20.57590  -1.27793  -0.63028  -0.54205  -0.48700
 Alpha virt. eigenvalues --    0.15540   0.22929   0.70450   0.74404   1.16714
 Alpha virt. eigenvalues --    1.18606   1.26769   1.44120   1.45071   1.65819
 Alpha virt. eigenvalues --    1.75350   1.80401   2.14890   2.20005   3.17218
 Alpha virt. eigenvalues --    3.20929   3.32755   3.71531   3.98516   5.84319
          Condensed to atoms (all electrons):
               1          2          3
     1  O    7.815587   0.310092   0.310092
     2  H    0.310092   0.499943  -0.027922
     3  H    0.310092  -0.027922   0.499943
 Mulliken charges:
               1
     1  O   -0.435772
     2  H    0.217886
     3  H    0.217886
 Sum of Mulliken charges =   0.00000
 Mulliken charges with hydrogens summed into heavy atoms:
               1
     1  O    0.000000
 Electronic spatial extent (au):  <R**2>=             20.7151
 Charge=              0.0000 electrons
 Dipole moment (field-independent basis, Debye):
    X=              0.0000    Y=              0.0000    Z=             -2.1759  Tot=              2.1759
 Quadrupole moment (field-independent basis, Debye-Ang):
   XX=             -7.3518   YY=             -3.8546   ZZ=             -5.9135
   XY=              0.0000   XZ=              0.0000   YZ=              0.0000
 Traceless Quadrupole moment (field-independent basis, Debye-Ang):
   XX=             -1.6452   YY=              1.8520   ZZ=             -0.2069
   XY=              0.0000   XZ=              0.0000   YZ=              0.0000
 Octapole moment (field-independent basis, Debye-Ang**2):
  XXX=              0.0000  YYY=              0.0000  ZZZ=             -1.1041  XYY=              0.0000
  XXY=              0.0000  XXZ=             -0.1955  XZZ=              0.0000  YZZ=              0.0000
  YYZ=             -1.7594  XYZ=              0.0000
 Hexadecapole moment (field-independent basis, Debye-Ang**3):
 XXXX=             -5.2678 YYYY=             -6.6971 ZZZZ=             -6.8880 XXXY=              0.0000
 XXXZ=              0.0000 YYYX=              0.0000 YYYZ=              0.0000 ZZZX=              0.0000
 ZZZY=              0.0000 XXYY=             -2.4785 XXZZ=             -2.1197 YYZZ=             -1.6487
 XXYZ=              0.0000 YYXZ=              0.0000 ZZXY=              0.0000
 N-N= 8.002366485626D+00 E-N=-1.964836466284D+02  KE= 7.552488813210D+01
 Symmetry A1   KE= 6.773380982107D+01
 Symmetry A2   KE= 2.661799681142D-36
 Symmetry B1   KE= 4.603619786610D+00
 Symmetry B2   KE= 3.187458524423D+00
 Leave Link  601 at Wed Oct 28 10:22:19 2015, MaxMem=    33554432 cpu:               0.0 elap:               0.0
 (Enter /home/gauss/gdvi03p/gdv/l9999.exe)
 Unable to Open any file for archive entry.
 1\1\GINC-MEDUSA\SP\RTD-Full\CC-pVDZ\H2O1\PLESTRAN\28-Oct-2015\0\\#p hf
 /cc-pvdz td(full,nstates=12) 6D\\Water singlets\\0,1\O,0,0.,-0.0757918
 436,0.\H,0,0.866811829,0.6014357793,0.\H,0,-0.866811829,0.6014357793,0
 .\\Version=ES64L-GDVRevI.03+\State=1-A1\HF=-75.9901787\MP2=-76.2079297
 \EFC=0.\RMSD=6.584e-09\PG=C02V [C2(O1),SGV(H2)]\\@
 The archive entry for this job was punched.


 The impersonal hand of government can
 never replace the helping hand of a neighbor.
                        -- Hubert H. Humphrey
 Job cpu time:       0 days  0 hours  0 minutes  1.8 seconds.
 Elapsed time:       0 days  0 hours  0 minutes  0.8 seconds.
 File lengths (MBytes):  RWF=     19 Int=      0 D2E=      0 Chk=      1 Scr=      1
 Normal termination of Gaussian DV at Wed Oct 28 10:22:19 2015.
 Initial command:
 /home/gauss/gdvi03p/gdv/l1.exe "/home/GauScr/Gau-2296.inp" -scrdir="/home/GauScr/"
 Entering Link 1 = /home/gauss/gdvi03p/gdv/l1.exe PID=      2314.
  
 Copyright (c) 1988,1990,1992,1993,1995,1998,2003,2009,2015,
            Gaussian, Inc.  All Rights Reserved.
  
 This is the private, development version of
 the Gaussian(R) DV system of programs. It is based on
 the Gaussian(R) 09 system (copyright 2009, Gaussian, Inc.),
 the Gaussian(R) 03 system (copyright 2003, Gaussian, Inc.),
 the Gaussian(R) 98 system (copyright 1998, Gaussian, Inc.),
 the Gaussian(R) 94 system (copyright 1995, Gaussian, Inc.),
 the Gaussian 92(TM) system (copyright 1992, Gaussian, Inc.),
 the Gaussian 90(TM) system (copyright 1990, Gaussian, Inc.),
 the Gaussian 88(TM) system (copyright 1988, Gaussian, Inc.),
 the Gaussian 86(TM) system (copyright 1986, Carnegie Mellon
 University), and the Gaussian 82(TM) system (copyright 1983,
 Carnegie Mellon University). Gaussian is a federally registered
 trademark of Gaussian, Inc.
  
 This software contains proprietary and confidential information,
 including trade secrets, belonging to Gaussian, Inc.
  
 This software is provided under written license and may be
 used, copied, transmitted, or stored only in accord with that
 written license.
  
 The following legend is applicable only to US Government
 contracts under FAR:
  
                    RESTRICTED RIGHTS LEGEND
  
 Use, reproduction and disclosure by the US Government is
 subject to restrictions as set forth in subparagraphs (a)
 and (c) of the Commercial Computer Software - Restricted
 Rights clause in FAR 52.227-19.
  
 Gaussian, Inc.
 340 Quinnipiac St., Bldg. 40, Wallingford CT 06492
  
  
 ---------------------------------------------------------------
 Warning -- This program may not be used in any manner that
 competes with the business of Gaussian, Inc. or will provide
 assistance to any competitor of Gaussian, Inc.  The licensee
 of this program is prohibited from giving any competitor of
 Gaussian, Inc. access to this program.  By using this program,
 the user acknowledges that Gaussian, Inc. is engaged in the
 business of creating and licensing software in the field of
 computational chemistry and represents and warrants to the
 licensee that it is not a competitor of Gaussian, Inc. and that
 it will not use this program in any manner prohibited above.
 ---------------------------------------------------------------
  

 Cite this work as:
 Gaussian Development Version, Revision I.03+,
 M. J. Frisch, G. W. Trucks, H. B. Schlegel, G. E. Scuseria, 
 M. A. Robb, J. R. Cheeseman, G. Scalmani, V. Barone, B. Mennucci, 
 G. A. Petersson, H. Nakatsuji, M. Caricato, X. Li, H. P. Hratchian, 
 J. Bloino, B. G. Janesko, A. F. Izmaylov, A. Marenich, F. Lipparini, 
 G. Zheng, J. L. Sonnenberg, W. Liang, M. Hada, M. Ehara, K. Toyota, 
 R. Fukuda, J. Hasegawa, M. Ishida, T. Nakajima, Y. Honda, O. Kitao, 
 H. Nakai, T. Vreven, K. Throssell, J. A. Montgomery, Jr., 
 J. E. Peralta, F. Ogliaro, M. Bearpark, J. J. Heyd, E. Brothers, 
 K. N. Kudin, V. N. Staroverov, T. Keith, R. Kobayashi, J. Normand, 
 K. Raghavachari, A. Rendell, J. C. Burant, S. S. Iyengar, J. Tomasi, 
 M. Cossi, N. Rega, J. M. Millam, M. Klene, J. E. Knox, J. B. Cross, 
 V. Bakken, C. Adamo, J. Jaramillo, R. Gomperts, R. E. Stratmann, 
 O. Yazyev, A. J. Austin, R. Cammi, C. Pomelli, J. W. Ochterski, 
 R. L. Martin, K. Morokuma, V. G. Zakrzewski, G. A. Voth, 
 P. Salvador, J. J. Dannenberg, S. Dapprich, P. V. Parandekar, 
 N. J. Mayhall, A. D. Daniels, O. Farkas, J. B. Foresman, 
 J. V. Ortiz, J. Cioslowski, and D. J. Fox, 
 Gaussian, Inc., Wallingford CT, 2014.
 
 *******************************************
 Gaussian DV:  ES64L-GDVRevI.03+  2-May-2015
                 28-Oct-2015 
 *******************************************
 %chk=h2o
 %nproc=2
 Will use up to    2 processors via shared memory.
 ------------------------------------------------------------------
 #p hf/cc-pvdz geom=check guess=read td(full,nstates=12,triplet) 6D
 ------------------------------------------------------------------
 1/29=2,38=1,172=1/1;
 2/12=2,40=1/2;
 3/5=16,8=2,11=9,14=-4,25=1,30=1,116=-2/1,2,3,8;
 4/5=1/1;
 5/5=2,38=6/2;
 8/6=1,10=90,108=12/1,4;
 9/41=12,42=3,48=3,70=2/14;
 6/7=2,8=2,9=2,10=2/1;
 99/5=1,9=1/99;
 Leave Link    1 at Wed Oct 28 10:22:19 2015, MaxMem=           0 cpu:               0.1 elap:               0.0
 (Enter /home/gauss/gdvi03p/gdv/l101.exe)
 --------------
 Water triplets
 --------------
 Structure from the checkpoint file:  "h2o.chk"
 Charge =  0 Multiplicity = 1
 Z-Matrix found in chk file.
 O,0,0.,-0.0757918436,0.
 H,0,0.866811829,0.6014357793,0.
 H,0,-0.866811829,0.6014357793,0.
 Recover connectivity data from disk.
 ITRead=  0  0  0
 MicOpt= -1 -1 -1
 NAtoms=      3 NQM=        3 NQMF=       0 NMMI=      0 NMMIF=      0
                NMic=       0 NMicF=      0.
                    Isotopes and Nuclear Properties:
 (Nuclear quadrupole moments (NQMom) in fm**2, nuclear magnetic moments (NMagM)
  in nuclear magnetons)

  Atom         1           2           3
 IAtWgt=          16           1           1
 AtmWgt=  15.9949146   1.0078250   1.0078250
 NucSpn=           0           1           1
 AtZEff=   5.6000000   1.0000000   1.0000000
 NQMom=    0.0000000   0.0000000   0.0000000
 NMagM=    0.0000000   2.7928460   2.7928460
 AtZNuc=   8.0000000   1.0000000   1.0000000
 Leave Link  101 at Wed Oct 28 10:22:19 2015, MaxMem=    33554432 cpu:               0.2 elap:               0.1
 (Enter /home/gauss/gdvi03p/gdv/l202.exe)
                          Input orientation:                          
 ---------------------------------------------------------------------
 Center     Atomic      Atomic             Coordinates (Angstroms)
 Number     Number       Type             X           Y           Z
 ---------------------------------------------------------------------
      1          8           0        0.000000   -0.075792    0.000000
      2          1           0        0.866812    0.601436    0.000000
      3          1           0       -0.866812    0.601436    0.000000
 ---------------------------------------------------------------------
                    Distance matrix (angstroms):
                    1          2          3
     1  O    0.000000
     2  H    1.100000   0.000000
     3  H    1.100000   1.733624   0.000000
 Stoichiometry    H2O
 Framework group  C2V[C2(O),SGV(H2)]
 Deg. of freedom     2
 Full point group                 C2V     NOp   4
 RotChk:  IX=0 Diff= 8.24D-16
 Largest Abelian subgroup         C2V     NOp   4
 Largest concise Abelian subgroup C2      NOp   2
                         Standard orientation:                         
 ---------------------------------------------------------------------
 Center     Atomic      Atomic             Coordinates (Angstroms)
 Number     Number       Type             X           Y           Z
 ---------------------------------------------------------------------
      1          8           0        0.000000    0.000000    0.135446
      2          1           0        0.000000    0.866812   -0.541782
      3          1           0        0.000000   -0.866812   -0.541782
 ---------------------------------------------------------------------
 Rotational constants (GHZ):    615.5709784    333.6970768    216.3922350
 Leave Link  202 at Wed Oct 28 10:22:19 2015, MaxMem=    33554432 cpu:               0.0 elap:               0.0
 (Enter /home/gauss/gdvi03p/gdv/l301.exe)
 Standard basis: CC-pVDZ (6D, 7F)
 Ernie: Thresh=  0.10000D-02 Tol=  0.10000D-05 Strict=F.
 Ernie:  2 primitive shells out of 32 were deleted.
 There are    12 symmetry adapted cartesian basis functions of A1  symmetry.
 There are     2 symmetry adapted cartesian basis functions of A2  symmetry.
 There are     4 symmetry adapted cartesian basis functions of B1  symmetry.
 There are     7 symmetry adapted cartesian basis functions of B2  symmetry.
 There are    12 symmetry adapted basis functions of A1  symmetry.
 There are     2 symmetry adapted basis functions of A2  symmetry.
 There are     4 symmetry adapted basis functions of B1  symmetry.
 There are     7 symmetry adapted basis functions of B2  symmetry.
    25 basis functions,    47 primitive gaussians,    25 cartesian basis functions
     5 alpha electrons        5 beta electrons
       nuclear repulsion energy         8.0023664856 Hartrees.
 IExCor=    0 DFT=F Ex=HF Corr=None ExCW=0 ScaHFX=  1.000000
 ScaDFX=  1.000000  1.000000  1.000000  1.000000 ScalE2=  1.000000  1.000000
 IRadAn=      0 IRanWt=     -1 IRanGd=            0 ICorTp=0 IEmpDi=  4
 NAtoms=    3 NActive=    3 NUniq=    2 SFac= 2.25D+00 NAtFMM=   60 NAOKFM=F Big=F
 Integral buffers will be    131072 words long.
 Raffenetti 1 integral format.
 Two-electron integral symmetry is turned on.
 Leave Link  301 at Wed Oct 28 10:22:19 2015, MaxMem=    33554432 cpu:               0.1 elap:               0.0
 (Enter /home/gauss/gdvi03p/gdv/l302.exe)
 NPDir=0 NMtPBC=     1 NCelOv=     1 NCel=       1 NClECP=     1 NCelD=      1
         NCelK=      1 NCelE2=     1 NClLst=     1 CellRange=     0.0.
 One-electron integrals computed using PRISM.
 One-electron integral symmetry used in STVInt
 NBasis=    25 RedAO= T EigKep=  3.91D-02  NBF=    12     2     4     7
 NBsUse=    25 1.00D-06 EigRej= -1.00D+00 NBFU=    12     2     4     7
 Leave Link  302 at Wed Oct 28 10:22:19 2015, MaxMem=    33554432 cpu:               0.2 elap:               0.1
 (Enter /home/gauss/gdvi03p/gdv/l303.exe)
 DipDrv:  MaxL=1.
 Leave Link  303 at Wed Oct 28 10:22:19 2015, MaxMem=    33554432 cpu:               0.0 elap:               0.0
 (Enter /home/gauss/gdvi03p/gdv/l308.exe)
 Leave Link  308 at Wed Oct 28 10:22:19 2015, MaxMem=    33554432 cpu:               0.0 elap:               0.0
 (Enter /home/gauss/gdvi03p/gdv/l401.exe)
 Initial guess from the checkpoint file:  "h2o.chk"
 B after Tr=     0.000000    0.000000    0.000000
         Rot=    1.000000    0.000000    0.000000    0.000000 Ang=   0.00 deg.
 Guess basis will be translated and rotated to current coordinates.
 JPrj=2 DoOrth=T DoCkMO=T.
 Initial guess orbital symmetries:
       Occupied  (A1) (A1) (B2) (A1) (B1)
       Virtual   (A1) (B2) (B2) (A1) (A1) (B1) (B2) (A1) (A2) (B1)
                 (A1) (B2) (B2) (A1) (B1) (A2) (A1) (A1) (B2) (A1)
 The electronic state of the initial guess is 1-A1.
 Leave Link  401 at Wed Oct 28 10:22:20 2015, MaxMem=    33554432 cpu:               0.1 elap:               0.1
 (Enter /home/gauss/gdvi03p/gdv/l502.exe)
 Keep R1 ints in memory in symmetry-blocked form, NReq=886507.
 FoFCou: FMM=F IPFlag=           0 FMFlag=           0 FMFlg1=           0
         NFxFlg=           0 DoJE=F BraDBF=F KetDBF=F FulRan=T
         wScrn=  0.000000 ICntrl=       600 IOpCl=  0 I1Cent=           0 NGrid=           0
         NMat0=    1 NMatS0=    325 NMatT0=    0 NMatD0=    1 NMtDS0=    0 NMtDT0=    0
 Petite list used in FoFCou.
 Closed shell SCF:
 Using DIIS extrapolation, IDIIS=  1040.
 NGot=    33554432 LenX=    33536280 LenY=    33535214
 Requested convergence on RMS density matrix=1.00D-08 within 128 cycles.
 Requested convergence on MAX density matrix=1.00D-06.
 Requested convergence on             energy=1.00D-06.
 No special actions if energy rises.

 Cycle   1  Pass 1  IDiag  1:
 E= -75.9901787492221    
 DIIS: error= 1.46D-09 at cycle   1 NSaved=   1.
 NSaved= 1 IEnMin= 1 EnMin= -75.9901787492221     IErMin= 1 ErrMin= 1.46D-09
 ErrMax= 1.46D-09  0.00D+00 EMaxC= 1.00D-01 BMatC= 4.97D-17 BMatP= 4.97D-17
 IDIUse=1 WtCom= 1.00D+00 WtEn= 0.00D+00
 Coeff-Com:  0.100D+01
 Coeff:      0.100D+01
 Gap=     0.642 Goal=   None    Shift=    0.000
 RMSDP=4.26D-10 MaxDP=2.55D-09              OVMax= 5.75D-09

 SCF Done:  E(RHF) =  -75.9901787492     A.U. after    1 cycles
            NFock=  1  Conv=0.43D-09     -V/T= 2.0062
 KE= 7.552488812986D+01 PE=-1.964836466261D+02 EE= 3.696621326142D+01
 Leave Link  502 at Wed Oct 28 10:22:20 2015, MaxMem=    33554432 cpu:               0.2 elap:               0.1
 (Enter /home/gauss/gdvi03p/gdv/l801.exe)
 Range of M.O.s used for correlation:     1    25
 NBasis=    25 NAE=     5 NBE=     5 NFC=     0 NFV=     0
 NROrb=     25 NOA=     5 NOB=     5 NVA=    20 NVB=    20
 Leave Link  801 at Wed Oct 28 10:22:20 2015, MaxMem=    33554432 cpu:               0.0 elap:               0.0
 (Enter /home/gauss/gdvi03p/gdv/l804.exe)
 Closed-shell transformation, MDV=    33554432 ITran=3 ISComp=1.
 Unit  1 TFree=         22918 TCopy=        180444.
 Semi-Direct transformation.
 ModeAB=           4 MOrb=             5 LenV=      33367179
 LASXX=        12955 LTotXX=       12955 LenRXX=       27830
 LTotAB=       14875 MaxLAS=       31500 LenRXY=           0
 NonZer=       40785 LenScr=      785920 LnRSAI=       31500
 LnScr1=      785920 LExtra=           0 Total=      1631170
 MaxDsk=          -1 SrtSym=           T ITran=            3
 DoSDTr:  NPSUse=  2
 JobTyp=0 Pass  1:  I=   1 to   5.
 (rs|ai) integrals will be sorted in core.
 Complete sort for first half transformation.
 First half transformation complete.
 Complete sort for second half transformation.
 Second half transformation complete.
 Spin components of T(2) and E(2):
     alpha-alpha T2 =       0.7057227663D-02 E2=     -0.2685064056D-01
     alpha-beta  T2 =       0.4499775899D-01 E2=     -0.1640496512D+00
     beta-beta   T2 =       0.7057227663D-02 E2=     -0.2685064056D-01
 ANorm=    0.1029131777D+01
 E2 =    -0.2177509323D+00 EUMP2 =    -0.76207929681517D+02
 Leave Link  804 at Wed Oct 28 10:22:20 2015, MaxMem=    33554432 cpu:               0.2 elap:               0.1
 (Enter /home/gauss/gdvi03p/gdv/l914.exe)
 RHF ground state
 MDV=    33554432 DFT=F DoStab=F Mixed=F DoRPA=T DoScal=F NonHer=T
 Making orbital integer symmetry assigments:
 Orbital symmetries:
       Occupied  (A1) (A1) (B2) (A1) (B1)
       Virtual   (A1) (B2) (B2) (A1) (A1) (B1) (B2) (A1) (A2) (B1)
                 (A1) (B2) (B2) (A1) (B1) (A2) (A1) (A1) (B2) (A1)
 FoFJK:  IHMeth= 1 ICntrl=       0 DoSepK=F KAlg= 0 I1Cent=           0 FoldK=F
 IRaf=         0 NMat=       1 IRICut=       1 DoRegI=T DoRafI=F ISym2E= 1 IDoP0=0 IntGTp=1.
 FoFCou: FMM=F IPFlag=           0 FMFlag=      100000 FMFlg1=           0
         NFxFlg=           0 DoJE=F BraDBF=F KetDBF=F FulRan=T
         wScrn=  0.000000 ICntrl=         0 IOpCl=  1 I1Cent=           0 NGrid=           0
         NMat0=    1 NMatS0=      1 NMatT0=    0 NMatD0=    1 NMtDS0=    0 NMtDT0=    0
 Petite list used in FoFCou.
    48 initial guesses have been made.
 Convergence on wavefunction:    0.001000000000000
 Davidson Disk Diagonalization:  ConvIn= 1.00D-03 SkipCon=T Conv= 1.00D-03.
 Max sub-space:   576 roots to seek:    48 dimension of matrix:          200
 Iteration     1 Dimension    48 NMult     0 NNew     48
 New state      8 was old state      9
 New state      9 was old state     10
 New state     10 was old state      8
 Excitation Energies [eV] at current iteration:
 Root      1 :     6.458836870686568
 Root      2 :     7.362415308544400
 Root      3 :     8.283517612349737
 Root      4 :     8.563142795980077
 Root      5 :    10.994687224815890
 Root      6 :    11.620362092897630
 Root      7 :    21.614649565805060
 Root      8 :    21.857342925378160
 Root      9 :    21.970197512090580
 Root     10 :    22.128552771700150
 Root     11 :    25.122361569284220
 Root     12 :    25.237700962745840
 Root     13 :    26.000282923864820
 Root     14 :    28.552463282289140
 Root     15 :    29.354295546604860
 Root     16 :    29.410912849998470
 Root     17 :    30.546466173881250
 Root     18 :    31.673830569102220
 Root     19 :    32.995527039872250
 Root     20 :    34.789019618405330
 Root     21 :    34.857567114651930
 Root     22 :    35.246990234897510
 Root     23 :    37.477743407780020
 Root     24 :    39.165765269302850
 Root     25 :    40.266455567978090
 Root     26 :    40.537397536124590
 Root     27 :    41.932766553207110
 Root     28 :    42.028854936837550
 Root     29 :    42.507562681095290
 Root     30 :    43.104960548228910
 Root     31 :    43.867303947802700
 Root     32 :    45.936038754805890
 Root     33 :    46.061391649614390
 Root     34 :    48.227989430019310
 Root     35 :    48.617483164911600
 Root     36 :    49.823265330106610
 Root     37 :    50.170579902058880
 Root     38 :    51.127485765348960
 Root     39 :    51.218456156962970
 Root     40 :    51.352362303909030
 Root     41 :    52.539304424587290
 Root     42 :    53.835359289461700
 Root     43 :    55.296891423290940
 Root     44 :    58.163655610428290
 Root     45 :    58.862978835688500
 Root     46 :    59.562944246953970
 Root     47 :    60.511829898869760
 Root     48 :    61.643133109312130
 Iteration     2 Dimension    72 NMult    48 NNew     24
 Root      1 not converged, maximum delta is    0.019652418693083
 Root      2 not converged, maximum delta is    0.014708224658802
 Root      3 not converged, maximum delta is    0.025563415157633
 Root      4 not converged, maximum delta is    0.027602262094383
 Root      5 not converged, maximum delta is    0.013731590309912
 Root      6 not converged, maximum delta is    0.019984648880882
 Root      7 not converged, maximum delta is    0.010317603373939
 Root      8 not converged, maximum delta is    0.014114477233659
 Root      9 not converged, maximum delta is    0.010387083714616
 Root     10 not converged, maximum delta is    0.014370774622035
 Root     11 not converged, maximum delta is    0.039118533532427
 Root     12 not converged, maximum delta is    0.022435160895447
 Excitation Energies [eV] at current iteration:
 Root      1 :     6.402260761881278   Change is   -0.056576108805289
 Root      2 :     7.275876726736588   Change is   -0.086538581807812
 Root      3 :     8.204800027783131   Change is   -0.078717584566606
 Root      4 :     8.412708570796838   Change is   -0.150434225183239
 Root      5 :    10.947244447627060   Change is   -0.047442777188827
 Root      6 :    11.521420641732690   Change is   -0.098941451164940
 Root      7 :    21.590285092845170   Change is   -0.024364472959882
 Root      8 :    21.816451152258840   Change is   -0.040891773119319
 Root      9 :    21.919891863714430   Change is   -0.050305648376156
 Root     10 :    22.096373871973350   Change is   -0.032178899726805
 Root     11 :    25.063140035592680   Change is   -0.059221533691538
 Root     12 :    25.150670237734260   Change is   -0.087030725011579
 Iteration     3 Dimension    94 NMult    72 NNew     22
 Root      1 has converged.
 Root      2 has converged.
 Root      3 has converged.
 Root      4 has converged.
 Root      5 has converged.
 Root      6 has converged.
 Root      7 has converged.
 Root      8 has converged.
 Root      9 has converged.
 Root     10 has converged.
 Root     11 has converged.
 Root     12 has converged.
 Excitation Energies [eV] at current iteration:
 Root      1 :     6.402238639849534   Change is   -0.000022122031745
 Root      2 :     7.275797690109773   Change is   -0.000079036626815
 Root      3 :     8.204776611905165   Change is   -0.000023415877966
 Root      4 :     8.412625821089669   Change is   -0.000082749707168
 Root      5 :    10.947194378670210   Change is   -0.000050068956856
 Root      6 :    11.521349631039190   Change is   -0.000071010693495
 Root      7 :    21.590275851426260   Change is   -0.000009241418917
 Root      8 :    21.816402331184880   Change is   -0.000048821073964
 Root      9 :    21.919805103621370   Change is   -0.000086760093055
 Root     10 :    22.096351989877780   Change is   -0.000021882095569
 Root     11 :    25.063003736682500   Change is   -0.000136298910182
 Root     12 :    25.150548282104060   Change is   -0.000121955630200
 Convergence achieved on expansion vectors.
 ***********************************************************************
 Excited states from <AA,BB:AA,BB> singles matrix:
 ***********************************************************************
 
 1PDM for each excited state written to RWF  633
 Ground to excited state transition densities written to RWF  633
 Ground to excited state transition electric dipole moments (Au):
       state          X           Y           Z        Dip. S.      Osc.
         1         0.0000      0.0000      0.0000      0.0000      0.0000
         2         0.0000      0.0000      0.0000      0.0000      0.0000
         3         0.0000      0.0000      0.0000      0.0000      0.0000
         4         0.0000      0.0000      0.0000      0.0000      0.0000
         5         0.0000      0.0000      0.0000      0.0000      0.0000
         6         0.0000      0.0000      0.0000      0.0000      0.0000
         7         0.0000      0.0000      0.0000      0.0000      0.0000
         8         0.0000      0.0000      0.0000      0.0000      0.0000
         9         0.0000      0.0000      0.0000      0.0000      0.0000
        10         0.0000      0.0000      0.0000      0.0000      0.0000
        11         0.0000      0.0000      0.0000      0.0000      0.0000
        12         0.0000      0.0000      0.0000      0.0000      0.0000
 Ground to excited state transition velocity dipole moments (Au):
       state          X           Y           Z        Dip. S.      Osc.
         1         0.0000      0.0000      0.0000      0.0000      0.0000
         2         0.0000      0.0000      0.0000      0.0000      0.0000
         3         0.0000      0.0000      0.0000      0.0000      0.0000
         4         0.0000      0.0000      0.0000      0.0000      0.0000
         5         0.0000      0.0000      0.0000      0.0000      0.0000
         6         0.0000      0.0000      0.0000      0.0000      0.0000
         7         0.0000      0.0000      0.0000      0.0000      0.0000
         8         0.0000      0.0000      0.0000      0.0000      0.0000
         9         0.0000      0.0000      0.0000      0.0000      0.0000
        10         0.0000      0.0000      0.0000      0.0000      0.0000
        11         0.0000      0.0000      0.0000      0.0000      0.0000
        12         0.0000      0.0000      0.0000      0.0000      0.0000
 Ground to excited state transition magnetic dipole moments (Au):
       state          X           Y           Z
         1         0.0000      0.0000      0.0000
         2         0.0000      0.0000      0.0000
         3         0.0000      0.0000      0.0000
         4         0.0000      0.0000      0.0000
         5         0.0000      0.0000      0.0000
         6         0.0000      0.0000      0.0000
         7         0.0000      0.0000      0.0000
         8         0.0000      0.0000      0.0000
         9         0.0000      0.0000      0.0000
        10         0.0000      0.0000      0.0000
        11         0.0000      0.0000      0.0000
        12         0.0000      0.0000      0.0000
 Ground to excited state transition velocity quadrupole moments (Au):
       state          XX          YY          ZZ          XY          XZ          YZ
         1         0.0000      0.0000      0.0000      0.0000      0.0000      0.0000
         2         0.0000      0.0000      0.0000      0.0000      0.0000      0.0000
         3         0.0000      0.0000      0.0000      0.0000      0.0000      0.0000
         4         0.0000      0.0000      0.0000      0.0000      0.0000      0.0000
         5         0.0000      0.0000      0.0000      0.0000      0.0000      0.0000
         6         0.0000      0.0000      0.0000      0.0000      0.0000      0.0000
         7         0.0000      0.0000      0.0000      0.0000      0.0000      0.0000
         8         0.0000      0.0000      0.0000      0.0000      0.0000      0.0000
         9         0.0000      0.0000      0.0000      0.0000      0.0000      0.0000
        10         0.0000      0.0000      0.0000      0.0000      0.0000      0.0000
        11         0.0000      0.0000      0.0000      0.0000      0.0000      0.0000
        12         0.0000      0.0000      0.0000      0.0000      0.0000      0.0000
 <0|del|b> * <b|rxdel|0> + <0|del|b> * <b|delr+rdel|0>
 Rotatory Strengths (R) in cgs (10**-40 erg-esu-cm/Gauss)
       state          XX          YY          ZZ    R(velocity)    E-M Angle
         1         0.0000      0.0000      0.0000      0.0000       90.00
         2         0.0000      0.0000      0.0000      0.0000       90.00
         3         0.0000      0.0000      0.0000      0.0000       90.00
         4         0.0000      0.0000      0.0000      0.0000       90.00
         5         0.0000      0.0000      0.0000      0.0000       90.00
         6         0.0000      0.0000      0.0000      0.0000       90.00
         7         0.0000      0.0000      0.0000      0.0000       90.00
         8         0.0000      0.0000      0.0000      0.0000       90.00
         9         0.0000      0.0000      0.0000      0.0000       90.00
        10         0.0000      0.0000      0.0000      0.0000       90.00
        11         0.0000      0.0000      0.0000      0.0000       90.00
        12         0.0000      0.0000      0.0000      0.0000       90.00
 1/2[<0|r|b>*<b|rxdel|0> + (<0|rxdel|b>*<b|r|0>)*]
 Rotatory Strengths (R) in cgs (10**-40 erg-esu-cm/Gauss)
       state          XX          YY          ZZ     R(length)
         1         0.0000      0.0000      0.0000      0.0000
         2         0.0000      0.0000      0.0000      0.0000
         3         0.0000      0.0000      0.0000      0.0000
         4         0.0000      0.0000      0.0000      0.0000
         5         0.0000      0.0000      0.0000      0.0000
         6         0.0000      0.0000      0.0000      0.0000
         7         0.0000      0.0000      0.0000      0.0000
         8         0.0000      0.0000      0.0000      0.0000
         9         0.0000      0.0000      0.0000      0.0000
        10         0.0000      0.0000      0.0000      0.0000
        11         0.0000      0.0000      0.0000      0.0000
        12         0.0000      0.0000      0.0000      0.0000
  1/2[<0|del|b>*<b|r|0> + (<0|r|b>*<b|del|0>)*] (Au)
       state          X           Y           Z        Dip. S.   Osc.(frdel)
         1         0.0000      0.0000      0.0000      0.0000      0.0000
         2         0.0000      0.0000      0.0000      0.0000      0.0000
         3         0.0000      0.0000      0.0000      0.0000      0.0000
         4         0.0000      0.0000      0.0000      0.0000      0.0000
         5         0.0000      0.0000      0.0000      0.0000      0.0000
         6         0.0000      0.0000      0.0000      0.0000      0.0000
         7         0.0000      0.0000      0.0000      0.0000      0.0000
         8         0.0000      0.0000      0.0000      0.0000      0.0000
         9         0.0000      0.0000      0.0000      0.0000      0.0000
        10         0.0000      0.0000      0.0000      0.0000      0.0000
        11         0.0000      0.0000      0.0000      0.0000      0.0000
        12         0.0000      0.0000      0.0000      0.0000      0.0000

 Excitation energies and oscillator strengths:
 
 Excited State   1:      Triplet-B1     6.4022 eV  193.66 nm  f=0.0000  <S**2>=2.000
       5 ->  6         0.68976
       5 ->  9        -0.14541
 This state for optimization and/or second-order correction.
 Total Energy, E(TD-HF/TD-KS) =  -75.7549008083    
 Copying the excited state density for this state as the 1-particle RhoCI density.
 
 Excited State   2:      Triplet-A1     7.2758 eV  170.41 nm  f=0.0000  <S**2>=2.000
       3 ->  7         0.24313
       3 ->  8         0.10858
       4 ->  6         0.64103
       4 ->  9        -0.16338
 
 Excited State   3:      Triplet-A2     8.2048 eV  151.11 nm  f=0.0000  <S**2>=2.000
       5 ->  7         0.67766
       5 ->  8         0.18184
 
 Excited State   4:      Triplet-B2     8.4126 eV  147.38 nm  f=0.0000  <S**2>=2.000
       3 ->  6         0.46403
       3 ->  9        -0.14664
       4 ->  7         0.49449
       4 ->  8         0.17238
 
 Excited State   5:      Triplet-B2    10.9472 eV  113.26 nm  f=0.0000  <S**2>=2.000
       3 ->  6         0.50595
       4 ->  7        -0.46423
       4 ->  8        -0.11145
 
 Excited State   6:      Triplet-A1    11.5213 eV  107.61 nm  f=0.0000  <S**2>=2.000
       3 ->  7         0.62259
       3 ->  8         0.19256
       4 ->  6        -0.26685
 
 Excited State   7:      Triplet-A2    21.5903 eV   57.43 nm  f=0.0000  <S**2>=2.000
       5 ->  7        -0.18464
       5 ->  8         0.68080
 
 Excited State   8:      Triplet-B2    21.8164 eV   56.83 nm  f=0.0000  <S**2>=2.000
       3 ->  6        -0.10623
       3 ->  9        -0.30591
       4 ->  7        -0.19133
       4 ->  8         0.59539
 
 Excited State   9:      Triplet-A1    21.9198 eV   56.56 nm  f=0.0000  <S**2>=2.000
       3 ->  7         0.19745
       3 ->  8        -0.39386
       4 ->  6         0.13560
       4 ->  9         0.50869
 
 Excited State  10:      Triplet-B1    22.0964 eV   56.11 nm  f=0.0000  <S**2>=2.000
       5 ->  6         0.15024
       5 ->  9         0.68224
 
 Excited State  11:      Triplet-A1    25.0630 eV   49.47 nm  f=0.0000  <S**2>=2.000
       2 ->  6         0.12885
       3 ->  7        -0.10718
       3 ->  8         0.53629
       4 ->  9         0.37356
       4 -> 10        -0.11611
       5 -> 11         0.14279
 
 Excited State  12:      Triplet-B2    25.1505 eV   49.30 nm  f=0.0000  <S**2>=2.000
       2 ->  7         0.12201
       3 ->  6         0.14542
       3 ->  9         0.58992
       4 ->  8         0.31699
 SavETr:  write IOETrn=   770 NScale= 10 NData=  16 NLR=1 NState=   12 LETran=     226.
 Leave Link  914 at Wed Oct 28 10:22:20 2015, MaxMem=    33554432 cpu:               0.3 elap:               0.1
 (Enter /home/gauss/gdvi03p/gdv/l601.exe)
 Copying SCF densities to generalized density rwf, IOpCl= 0 IROHF=0.

 **********************************************************************

            Population analysis using the SCF density.

 **********************************************************************

 Orbital symmetries:
       Occupied  (A1) (A1) (B2) (A1) (B1)
       Virtual   (A1) (B2) (B2) (A1) (A1) (B1) (B2) (A1) (A2) (B1)
                 (A1) (B2) (B2) (A1) (B1) (A2) (A1) (A1) (B2) (A1)
 The electronic state is 1-A1.
 Alpha  occ. eigenvalues --  -20.57590  -1.27793  -0.63028  -0.54205  -0.48700
 Alpha virt. eigenvalues --    0.15540   0.22929   0.70450   0.74404   1.16714
 Alpha virt. eigenvalues --    1.18606   1.26769   1.44120   1.45071   1.65819
 Alpha virt. eigenvalues --    1.75350   1.80401   2.14890   2.20005   3.17218
 Alpha virt. eigenvalues --    3.20929   3.32755   3.71531   3.98516   5.84319
          Condensed to atoms (all electrons):
               1          2          3
     1  O    7.815587   0.310092   0.310092
     2  H    0.310092   0.499943  -0.027922
     3  H    0.310092  -0.027922   0.499943
 Mulliken charges:
               1
     1  O   -0.435772
     2  H    0.217886
     3  H    0.217886
 Sum of Mulliken charges =   0.00000
 Mulliken charges with hydrogens summed into heavy atoms:
               1
     1  O    0.000000
 Electronic spatial extent (au):  <R**2>=             20.7151
 Charge=              0.0000 electrons
 Dipole moment (field-independent basis, Debye):
    X=              0.0000    Y=              0.0000    Z=             -2.1759  Tot=              2.1759
 Quadrupole moment (field-independent basis, Debye-Ang):
   XX=             -7.3518   YY=             -3.8546   ZZ=             -5.9135
   XY=              0.0000   XZ=              0.0000   YZ=              0.0000
 Traceless Quadrupole moment (field-independent basis, Debye-Ang):
   XX=             -1.6452   YY=              1.8520   ZZ=             -0.2069
   XY=              0.0000   XZ=              0.0000   YZ=              0.0000
 Octapole moment (field-independent basis, Debye-Ang**2):
  XXX=              0.0000  YYY=              0.0000  ZZZ=             -1.1041  XYY=              0.0000
  XXY=              0.0000  XXZ=             -0.1955  XZZ=              0.0000  YZZ=              0.0000
  YYZ=             -1.7594  XYZ=              0.0000
 Hexadecapole moment (field-independent basis, Debye-Ang**3):
 XXXX=             -5.2678 YYYY=             -6.6971 ZZZZ=             -6.8880 XXXY=              0.0000
 XXXZ=              0.0000 YYYX=              0.0000 YYYZ=              0.0000 ZZZX=              0.0000
 ZZZY=              0.0000 XXYY=             -2.4785 XXZZ=             -2.1197 YYZZ=             -1.6487
 XXYZ=              0.0000 YYXZ=              0.0000 ZZXY=              0.0000
 N-N= 8.002366485626D+00 E-N=-1.964836466119D+02  KE= 7.552488812986D+01
 Symmetry A1   KE= 6.773380983532D+01
 Symmetry A2   KE= 1.893932274069D-36
 Symmetry B1   KE= 4.603619772632D+00
 Symmetry B2   KE= 3.187458521903D+00
 Leave Link  601 at Wed Oct 28 10:22:20 2015, MaxMem=    33554432 cpu:               0.0 elap:               0.0
 (Enter /home/gauss/gdvi03p/gdv/l9999.exe)
 Unable to Open any file for archive entry.
 1\1\GINC-MEDUSA\SP\RTD-Full\CC-pVDZ\H2O1\PLESTRAN\28-Oct-2015\0\\#p hf
 /cc-pvdz geom=check guess=read td(full,nstates=12,triplet) 6D\\Water t
 riplets\\0,1\O,0,0.,-0.0757918436,0.\H,0,0.866811829,0.6014357793,0.\H
 ,0,-0.866811829,0.6014357793,0.\\Version=ES64L-GDVRevI.03+\State=1-A1\
 HF=-75.9901787\MP2=-76.2079297\EFC=0.\RMSD=4.259e-10\PG=C02V [C2(O1),S
 GV(H2)]\\@
 The archive entry for this job was punched.


 ASKING DUMB QUESTIONS IS EASIER THAN CORECTING DUMB MISTAKES.
 Job cpu time:       0 days  0 hours  0 minutes  1.7 seconds.
 Elapsed time:       0 days  0 hours  0 minutes  0.7 seconds.
 File lengths (MBytes):  RWF=     19 Int=      0 D2E=      0 Chk=      1 Scr=      1
 Normal termination of Gaussian DV at Wed Oct 28 10:22:20 2015.
