 Entering Gaussian System, Link 0=gdv
 Input=h2o_631G.com
 Output=h2o_631G.log
 Initial command:
 /home/gauss/gdvi01p/gdv/l1.exe "/home/GauScr/Gau-32700.inp" -scrdir="/home/GauScr/"
 Entering Link 1 = /home/gauss/gdvi01p/gdv/l1.exe PID=     32701.
  
 Copyright (c) 1988,1990,1992,1993,1995,1998,2003,2009,2014,
            Gaussian, Inc.  All Rights Reserved.
  
 This is the private, development version of
 the Gaussian(R) DV system of programs. It is based on
 the Gaussian(R) 09 system (copyright 2009, Gaussian, Inc.),
 the Gaussian(R) 03 system (copyright 2003, Gaussian, Inc.),
 the Gaussian(R) 98 system (copyright 1998, Gaussian, Inc.),
 the Gaussian(R) 94 system (copyright 1995, Gaussian, Inc.),
 the Gaussian 92(TM) system (copyright 1992, Gaussian, Inc.),
 the Gaussian 90(TM) system (copyright 1990, Gaussian, Inc.),
 the Gaussian 88(TM) system (copyright 1988, Gaussian, Inc.),
 the Gaussian 86(TM) system (copyright 1986, Carnegie Mellon
 University), and the Gaussian 82(TM) system (copyright 1983,
 Carnegie Mellon University). Gaussian is a federally registered
 trademark of Gaussian, Inc.
  
 This software contains proprietary and confidential information,
 including trade secrets, belonging to Gaussian, Inc.
  
 This software is provided under written license and may be
 used, copied, transmitted, or stored only in accord with that
 written license.
  
 The following legend is applicable only to US Government
 contracts under FAR:
  
                    RESTRICTED RIGHTS LEGEND
  
 Use, reproduction and disclosure by the US Government is
 subject to restrictions as set forth in subparagraphs (a)
 and (c) of the Commercial Computer Software - Restricted
 Rights clause in FAR 52.227-19.
  
 Gaussian, Inc.
 340 Quinnipiac St., Bldg. 40, Wallingford CT 06492
  
  
 ---------------------------------------------------------------
 Warning -- This program may not be used in any manner that
 competes with the business of Gaussian, Inc. or will provide
 assistance to any competitor of Gaussian, Inc.  The licensee
 of this program is prohibited from giving any competitor of
 Gaussian, Inc. access to this program.  By using this program,
 the user acknowledges that Gaussian, Inc. is engaged in the
 business of creating and licensing software in the field of
 computational chemistry and represents and warrants to the
 licensee that it is not a competitor of Gaussian, Inc. and that
 it will not use this program in any manner prohibited above.
 ---------------------------------------------------------------
  

 Cite this work as:
 Gaussian Development Version, Revision I.01+,
 M. J. Frisch, G. W. Trucks, H. B. Schlegel, G. E. Scuseria, 
 M. A. Robb, J. R. Cheeseman, G. Scalmani, V. Barone, B. Mennucci, 
 G. A. Petersson, H. Nakatsuji, M. Caricato, X. Li, H. P. Hratchian, 
 A. F. Izmaylov, J. Bloino, B. G. Janesko, F. Lipparini, G. Zheng, 
 J. L. Sonnenberg, W. Liang, M. Hada, M. Ehara, K. Toyota, R. Fukuda, 
 J. Hasegawa, M. Ishida, T. Nakajima, Y. Honda, O. Kitao, H. Nakai, 
 T. Vreven, J. A. Montgomery, Jr., J. E. Peralta, F. Ogliaro, 
 M. Bearpark, J. J. Heyd, E. Brothers, K. N. Kudin, V. N. Staroverov, 
 T. Keith, R. Kobayashi, J. Normand, K. Raghavachari, A. Rendell, 
 J. C. Burant, S. S. Iyengar, J. Tomasi, M. Cossi, N. Rega, 
 J. M. Millam, M. Klene, J. E. Knox, J. B. Cross, V. Bakken, 
 C. Adamo, J. Jaramillo, R. Gomperts, R. E. Stratmann, O. Yazyev, 
 A. J. Austin, R. Cammi, C. Pomelli, J. W. Ochterski, R. L. Martin, 
 K. Morokuma, V. G. Zakrzewski, G. A. Voth, P. Salvador, 
 J. J. Dannenberg, S. Dapprich, P. V. Parandekar, N. J. Mayhall, 
 A. D. Daniels, O. Farkas, J. B. Foresman, J. V. Ortiz, 
 J. Cioslowski, and D. J. Fox, Gaussian, Inc., Wallingford CT, 2010.
 
 *******************************************
 Gaussian DV:  ES64L-GDVRevI.01+ 11-Sep-2014
                 22-Sep-2015 
 *******************************************
 -----------------------------------
 #p hf/6-31G gfinput pop=full nosymm
 -----------------------------------
 1/38=1,172=1/1;
 2/12=2,15=1,17=6,18=5,40=1/2;
 3/5=1,6=6,11=9,24=10,25=1,30=1/1,2,3;
 4//1;
 5/5=2,38=5/2;
 6/7=3,28=1/1;
 99/5=1,9=1/99;
 Leave Link    1 at Tue Sep 22 13:39:17 2015, MaxMem=           0 cpu:               0.0 elap:               0.0
 (Enter /home/gauss/gdvi01p/gdv/l101.exe)
 -----------
 Water 6-31G
 -----------
 Symbolic Z-matrix:
 Charge =  0 Multiplicity = 1
 O                     0.       -0.07579   0. 
 H                     0.86681   0.60144   0. 
 H                    -0.86681   0.60144   0. 
 
 ITRead=  0  0  0
 MicOpt= -1 -1 -1
 NAtoms=      3 NQM=        3 NQMF=       0 NMMI=      0 NMMIF=      0
                NMic=       0 NMicF=      0.
                    Isotopes and Nuclear Properties:
 (Nuclear quadrupole moments (NQMom) in fm**2, nuclear magnetic moments (NMagM)
  in nuclear magnetons)

  Atom         1           2           3
 IAtWgt=          16           1           1
 AtmWgt=  15.9949146   1.0078250   1.0078250
 NucSpn=           0           1           1
 AtZEff=   0.0000000   0.0000000   0.0000000
 NQMom=    0.0000000   0.0000000   0.0000000
 NMagM=    0.0000000   2.7928460   2.7928460
 AtZNuc=   8.0000000   1.0000000   1.0000000
 Leave Link  101 at Tue Sep 22 13:39:17 2015, MaxMem=    33554432 cpu:               0.1 elap:               0.1
 (Enter /home/gauss/gdvi01p/gdv/l202.exe)
                          Input orientation:                          
 ---------------------------------------------------------------------
 Center     Atomic      Atomic             Coordinates (Angstroms)
 Number     Number       Type             X           Y           Z
 ---------------------------------------------------------------------
      1          8           0        0.000000   -0.075792    0.000000
      2          1           0        0.866812    0.601436    0.000000
      3          1           0       -0.866812    0.601436    0.000000
 ---------------------------------------------------------------------
                    Distance matrix (angstroms):
                    1          2          3
     1  O    0.000000
     2  H    1.100000   0.000000
     3  H    1.100000   1.733624   0.000000
 Symmetry turned off by external request.
 Stoichiometry    H2O
 Framework group  C2V[C2(O),SGV(H2)]
 Deg. of freedom     2
 Full point group                 C2V     NOp   4
 Rotational constants (GHZ):    615.5709784    333.6970768    216.3922350
 Leave Link  202 at Tue Sep 22 13:39:17 2015, MaxMem=    33554432 cpu:               0.0 elap:               0.0
 (Enter /home/gauss/gdvi01p/gdv/l301.exe)
 Standard basis: 6-31G (6D, 7F)
 Ernie: Thresh=  0.10000D-02 Tol=  0.10000D-05 Strict=F.
 AO basis set in the form of general basis input (Overlap normalization):
      1 0
 S   6 1.00       0.000000000000
      0.5484671660D+04  0.1831074430D-02
      0.8252349460D+03  0.1395017220D-01
      0.1880469580D+03  0.6844507810D-01
      0.5296450000D+02  0.2327143360D+00
      0.1689757040D+02  0.4701928980D+00
      0.5799635340D+01  0.3585208530D+00
 SP   3 1.00       0.000000000000
      0.1553961625D+02 -0.1107775495D+00  0.7087426823D-01
      0.3599933586D+01 -0.1480262627D+00  0.3397528391D+00
      0.1013761750D+01  0.1130767015D+01  0.7271585773D+00
 SP   1 1.00       0.000000000000
      0.2700058226D+00  0.1000000000D+01  0.1000000000D+01
 ****
      2 0
 S   3 1.00       0.000000000000
      0.1873113696D+02  0.3349460434D-01
      0.2825394365D+01  0.2347269535D+00
      0.6401216923D+00  0.8137573261D+00
 S   1 1.00       0.000000000000
      0.1612777588D+00  0.1000000000D+01
 ****
      3 0
 S   3 1.00       0.000000000000
      0.1873113696D+02  0.3349460434D-01
      0.2825394365D+01  0.2347269535D+00
      0.6401216923D+00  0.8137573261D+00
 S   1 1.00       0.000000000000
      0.1612777588D+00  0.1000000000D+01
 ****

    13 basis functions,    30 primitive gaussians,    13 cartesian basis functions
     5 alpha electrons        5 beta electrons
       nuclear repulsion energy         8.0023664856 Hartrees.
 IExCor=    0 DFT=F Ex=HF Corr=None ExCW=0 ScaHFX=  1.000000
 ScaDFX=  1.000000  1.000000  1.000000  1.000000 ScalE2=  1.000000  1.000000
 IRadAn=      0 IRanWt=     -1 IRanGd=            0 ICorTp=0 IEmpDi=  4
 NAtoms=    3 NActive=    3 NUniq=    3 SFac= 1.00D+00 NAtFMM=   60 NAOKFM=F Big=F
 Integral buffers will be    131072 words long.
 Raffenetti 1 integral format.
 Two-electron integral symmetry is turned off.
 Leave Link  301 at Tue Sep 22 13:39:17 2015, MaxMem=    33554432 cpu:               0.0 elap:               0.1
 (Enter /home/gauss/gdvi01p/gdv/l302.exe)
 NPDir=0 NMtPBC=     1 NCelOv=     1 NCel=       1 NClECP=     1 NCelD=      1
         NCelK=      1 NCelE2=     1 NClLst=     1 CellRange=     0.0.
 One-electron integrals computed using PRISM.
 One-electron integral symmetry used in STVInt
 NBasis=    13 RedAO= T EigKep=  8.92D-02  NBF=    13
 NBsUse=    13 1.00D-06 EigRej= -1.00D+00 NBFU=    13
 Leave Link  302 at Tue Sep 22 13:39:17 2015, MaxMem=    33554432 cpu:               0.1 elap:               0.1
 (Enter /home/gauss/gdvi01p/gdv/l303.exe)
 DipDrv:  MaxL=1.
 Leave Link  303 at Tue Sep 22 13:39:17 2015, MaxMem=    33554432 cpu:               0.0 elap:               0.0
 (Enter /home/gauss/gdvi01p/gdv/l401.exe)
 ExpMin= 1.61D-01 ExpMax= 5.48D+03 ExpMxC= 8.25D+02 IAcc=1 IRadAn=         1 AccDes= 0.00D+00
 Harris functional with IExCor=  205 and IRadAn=       1 diagonalized for initial guess.
 HarFok:  IExCor=  205 AccDes= 0.00D+00 IRadAn=         1 IDoV= 1 UseB2=F ITyADJ=14
 ICtDFT=  3500011 ScaDFX=  1.000000  1.000000  1.000000  1.000000
 FoFCou: FMM=F IPFlag=           0 FMFlag=      100000 FMFlg1=           0
         NFxFlg=           0 DoJE=T BraDBF=F KetDBF=T FulRan=T
         wScrn=  0.000000 ICntrl=       500 IOpCl=  0 I1Cent=   200000004 NGrid=           0
         NMat0=    1 NMatS0=      1 NMatT0=    0 NMatD0=    1 NMtDS0=    0 NMtDT0=    0
 Symmetry not used in FoFCou.
 Harris En= -76.0621278300341    
 JPrj=0 DoOrth=F DoCkMO=F.
 Leave Link  401 at Tue Sep 22 13:39:17 2015, MaxMem=    33554432 cpu:               0.1 elap:               0.1
 (Enter /home/gauss/gdvi01p/gdv/l502.exe)
 Keep R1 ints in memory in canonical form, NReq=809046.
 FoFCou: FMM=F IPFlag=           0 FMFlag=           0 FMFlg1=           0
         NFxFlg=           0 DoJE=F BraDBF=F KetDBF=F FulRan=T
         wScrn=  0.000000 ICntrl=       600 IOpCl=  0 I1Cent=           0 NGrid=           0
         NMat0=    1 NMatS0=     91 NMatT0=    0 NMatD0=    1 NMtDS0=    0 NMtDT0=    0
 Symmetry not used in FoFCou.
 Two-electron integral symmetry not used.
 Closed shell SCF:
 Using DIIS extrapolation, IDIIS=  1040.
 NGot=    33554432 LenX=    33548888 LenY=    33548006
 Requested convergence on RMS density matrix=1.00D-08 within 128 cycles.
 Requested convergence on MAX density matrix=1.00D-06.
 Requested convergence on             energy=1.00D-06.
 No special actions if energy rises.

 Cycle   1  Pass 1  IDiag  1:
 E= -75.8742451904176    
 DIIS: error= 8.85D-02 at cycle   1 NSaved=   1.
 NSaved= 1 IEnMin= 1 EnMin= -75.8742451904176     IErMin= 1 ErrMin= 8.85D-02
 ErrMax= 8.85D-02  0.00D+00 EMaxC= 1.00D-01 BMatC= 1.02D-01 BMatP= 1.02D-01
 IDIUse=3 WtCom= 1.15D-01 WtEn= 8.85D-01
 Coeff-Com:  0.100D+01
 Coeff-En:   0.100D+01
 Coeff:      0.100D+01
 Gap=     0.533 Goal=   None    Shift=    0.000
 GapD=    0.533 DampG=2.000 DampE=0.500 DampFc=1.0000 IDamp=-1.
 RMSDP=2.33D-02 MaxDP=1.22D-01              OVMax= 1.39D-01

 Cycle   2  Pass 1  IDiag  1:
 E= -75.9192038872068     Delta-E=       -0.044958696789 Rises=F Damp=F
 DIIS: error= 5.89D-02 at cycle   2 NSaved=   2.
 NSaved= 2 IEnMin= 2 EnMin= -75.9192038872068     IErMin= 2 ErrMin= 5.89D-02
 ErrMax= 5.89D-02  0.00D+00 EMaxC= 1.00D-01 BMatC= 4.64D-02 BMatP= 1.02D-01
 IDIUse=3 WtCom= 4.11D-01 WtEn= 5.89D-01
 Coeff-Com:  0.394D+00 0.606D+00
 Coeff-En:   0.214D+00 0.786D+00
 Coeff:      0.288D+00 0.712D+00
 Gap=     0.674 Goal=   None    Shift=    0.000
 RMSDP=1.22D-02 MaxDP=6.44D-02 DE=-4.50D-02 OVMax= 4.96D-02

 Cycle   3  Pass 1  IDiag  1:
 E= -75.9510567551330     Delta-E=       -0.031852867926 Rises=F Damp=F
 DIIS: error= 1.24D-02 at cycle   3 NSaved=   3.
 NSaved= 3 IEnMin= 3 EnMin= -75.9510567551330     IErMin= 3 ErrMin= 1.24D-02
 ErrMax= 1.24D-02  0.00D+00 EMaxC= 1.00D-01 BMatC= 1.65D-03 BMatP= 4.64D-02
 IDIUse=3 WtCom= 8.76D-01 WtEn= 1.24D-01
 Coeff-Com: -0.420D-01 0.114D+00 0.928D+00
 Coeff-En:   0.000D+00 0.000D+00 0.100D+01
 Coeff:     -0.367D-01 0.100D+00 0.937D+00
 Gap=     0.657 Goal=   None    Shift=    0.000
 RMSDP=2.10D-03 MaxDP=1.24D-02 DE=-3.19D-02 OVMax= 1.40D-02

 Cycle   4  Pass 1  IDiag  1:
 E= -75.9524893365544     Delta-E=       -0.001432581421 Rises=F Damp=F
 DIIS: error= 2.26D-03 at cycle   4 NSaved=   4.
 NSaved= 4 IEnMin= 4 EnMin= -75.9524893365544     IErMin= 4 ErrMin= 2.26D-03
 ErrMax= 2.26D-03  0.00D+00 EMaxC= 1.00D-01 BMatC= 3.67D-05 BMatP= 1.65D-03
 IDIUse=3 WtCom= 9.77D-01 WtEn= 2.26D-02
 Coeff-Com:  0.104D-01-0.782D-01-0.321D+00 0.139D+01
 Coeff-En:   0.000D+00 0.000D+00 0.000D+00 0.100D+01
 Coeff:      0.102D-01-0.764D-01-0.314D+00 0.138D+01
 Gap=     0.663 Goal=   None    Shift=    0.000
 RMSDP=4.65D-04 MaxDP=3.43D-03 DE=-1.43D-03 OVMax= 1.29D-03

 Cycle   5  Pass 1  IDiag  1:
 E= -75.9525285186356     Delta-E=       -0.000039182081 Rises=F Damp=F
 DIIS: error= 1.95D-04 at cycle   5 NSaved=   5.
 NSaved= 5 IEnMin= 5 EnMin= -75.9525285186356     IErMin= 5 ErrMin= 1.95D-04
 ErrMax= 1.95D-04  0.00D+00 EMaxC= 1.00D-01 BMatC= 2.10D-07 BMatP= 3.67D-05
 IDIUse=3 WtCom= 9.98D-01 WtEn= 1.95D-03
 Coeff-Com: -0.231D-02 0.223D-01 0.830D-01-0.470D+00 0.137D+01
 Coeff-En:   0.000D+00 0.000D+00 0.000D+00 0.000D+00 0.100D+01
 Coeff:     -0.231D-02 0.223D-01 0.828D-01-0.469D+00 0.137D+01
 Gap=     0.663 Goal=   None    Shift=    0.000
 RMSDP=7.45D-05 MaxDP=4.41D-04 DE=-3.92D-05 OVMax= 4.21D-04

 Cycle   6  Pass 1  IDiag  1:
 E= -75.9525290259967     Delta-E=       -0.000000507361 Rises=F Damp=F
 DIIS: error= 1.68D-05 at cycle   6 NSaved=   6.
 NSaved= 6 IEnMin= 6 EnMin= -75.9525290259967     IErMin= 6 ErrMin= 1.68D-05
 ErrMax= 1.68D-05  0.00D+00 EMaxC= 1.00D-01 BMatC= 4.40D-09 BMatP= 2.10D-07
 IDIUse=1 WtCom= 1.00D+00 WtEn= 0.00D+00
 Coeff-Com:  0.808D-03-0.828D-02-0.302D-01 0.184D+00-0.590D+00 0.144D+01
 Coeff:      0.808D-03-0.828D-02-0.302D-01 0.184D+00-0.590D+00 0.144D+01
 Gap=     0.663 Goal=   None    Shift=    0.000
 RMSDP=1.14D-05 MaxDP=5.61D-05 DE=-5.07D-07 OVMax= 7.26D-05

 Cycle   7  Pass 1  IDiag  1:
 E= -75.9525290398911     Delta-E=       -0.000000013894 Rises=F Damp=F
 DIIS: error= 6.39D-06 at cycle   7 NSaved=   7.
 NSaved= 7 IEnMin= 7 EnMin= -75.9525290398911     IErMin= 7 ErrMin= 6.39D-06
 ErrMax= 6.39D-06  0.00D+00 EMaxC= 1.00D-01 BMatC= 4.26D-10 BMatP= 4.40D-09
 IDIUse=1 WtCom= 1.00D+00 WtEn= 0.00D+00
 Coeff-Com: -0.104D-03 0.131D-02 0.457D-02-0.348D-01 0.131D+00-0.589D+00
 Coeff-Com:  0.149D+01
 Coeff:     -0.104D-03 0.131D-02 0.457D-02-0.348D-01 0.131D+00-0.589D+00
 Coeff:      0.149D+01
 Gap=     0.663 Goal=   None    Shift=    0.000
 RMSDP=3.60D-06 MaxDP=1.74D-05 DE=-1.39D-08 OVMax= 2.70D-05

 Cycle   8  Pass 1  IDiag  1:
 E= -75.9525290412080     Delta-E=       -0.000000001317 Rises=F Damp=F
 DIIS: error= 6.42D-07 at cycle   8 NSaved=   8.
 NSaved= 8 IEnMin= 8 EnMin= -75.9525290412080     IErMin= 8 ErrMin= 6.42D-07
 ErrMax= 6.42D-07  0.00D+00 EMaxC= 1.00D-01 BMatC= 6.23D-12 BMatP= 4.26D-10
 IDIUse=1 WtCom= 1.00D+00 WtEn= 0.00D+00
 Coeff-Com: -0.141D-04 0.623D-04 0.311D-03 0.304D-03-0.637D-02 0.810D-01
 Coeff-Com: -0.353D+00 0.128D+01
 Coeff:     -0.141D-04 0.623D-04 0.311D-03 0.304D-03-0.637D-02 0.810D-01
 Coeff:     -0.353D+00 0.128D+01
 Gap=     0.663 Goal=   None    Shift=    0.000
 RMSDP=4.98D-07 MaxDP=1.55D-06 DE=-1.32D-09 OVMax= 3.61D-06

 Cycle   9  Pass 1  IDiag  1:
 E= -75.9525290412287     Delta-E=       -0.000000000021 Rises=F Damp=F
 DIIS: error= 9.11D-08 at cycle   9 NSaved=   9.
 NSaved= 9 IEnMin= 9 EnMin= -75.9525290412287     IErMin= 9 ErrMin= 9.11D-08
 ErrMax= 9.11D-08  0.00D+00 EMaxC= 1.00D-01 BMatC= 8.05D-14 BMatP= 6.23D-12
 IDIUse=1 WtCom= 1.00D+00 WtEn= 0.00D+00
 Coeff-Com:  0.159D-05 0.120D-05-0.110D-04-0.391D-03 0.227D-02-0.183D-01
 Coeff-Com:  0.737D-01-0.331D+00 0.127D+01
 Coeff:      0.159D-05 0.120D-05-0.110D-04-0.391D-03 0.227D-02-0.183D-01
 Coeff:      0.737D-01-0.331D+00 0.127D+01
 Gap=     0.663 Goal=   None    Shift=    0.000
 RMSDP=6.15D-08 MaxDP=2.30D-07 DE=-2.07D-11 OVMax= 4.45D-07

 Cycle  10  Pass 1  IDiag  1:
 E= -75.9525290412290     Delta-E=        0.000000000000 Rises=F Damp=F
 DIIS: error= 3.66D-09 at cycle  10 NSaved=  10.
 NSaved=10 IEnMin=10 EnMin= -75.9525290412290     IErMin=10 ErrMin= 3.66D-09
 ErrMax= 3.66D-09  0.00D+00 EMaxC= 1.00D-01 BMatC= 2.87D-16 BMatP= 8.05D-14
 IDIUse=1 WtCom= 1.00D+00 WtEn= 0.00D+00
 Coeff-Com: -0.229D-06 0.727D-06 0.415D-05 0.162D-04-0.140D-03 0.138D-02
 Coeff-Com: -0.647D-02 0.337D-01-0.176D+00 0.115D+01
 Coeff:     -0.229D-06 0.727D-06 0.415D-05 0.162D-04-0.140D-03 0.138D-02
 Coeff:     -0.647D-02 0.337D-01-0.176D+00 0.115D+01
 Gap=     0.663 Goal=   None    Shift=    0.000
 RMSDP=4.14D-09 MaxDP=1.31D-08 DE=-3.41D-13 OVMax= 2.69D-08

 SCF Done:  E(RHF) =  -75.9525290412     A.U. after   10 cycles
            NFock= 10  Conv=0.41D-08     -V/T= 2.0056
 KE= 7.553331820733D+01 PE=-1.963296409436D+02 EE= 3.684142720937D+01
 Leave Link  502 at Tue Sep 22 13:39:17 2015, MaxMem=    33554432 cpu:               0.0 elap:               0.1
 (Enter /home/gauss/gdvi01p/gdv/l601.exe)
 Copying SCF densities to generalized density rwf, IOpCl= 0 IROHF=0.

 **********************************************************************

            Population analysis using the SCF density.

 **********************************************************************

 Alpha  occ. eigenvalues --  -20.58853  -1.29384  -0.63750  -0.54023  -0.49664
 Alpha virt. eigenvalues --    0.16656   0.25488   1.00524   1.02844   1.16340
 Alpha virt. eigenvalues --    1.23352   1.36346   1.67820
     Molecular Orbital Coefficients:
                           1         2         3         4         5
                           O         O         O         O         O
     Eigenvalues --   -20.58853  -1.29384  -0.63750  -0.54023  -0.49664
   1 1   O  1S          0.99587  -0.21646   0.00000   0.06920   0.00000
   2        2S          0.02133   0.47832   0.00000  -0.17291   0.00000
   3        2PX         0.00000   0.00000   0.48540   0.00000   0.00000
   4        2PY         0.00191   0.07830   0.00000   0.53309   0.00000
   5        2PZ         0.00000   0.00000   0.00000   0.00000   0.64694
   6        3S         -0.00714   0.51881   0.00000  -0.27050   0.00000
   7        3PX         0.00000   0.00000   0.30539   0.00000   0.00000
   8        3PY        -0.00181   0.06214   0.00000   0.40248   0.00000
   9        3PZ         0.00000   0.00000   0.00000   0.00000   0.50424
  10 2   H  1S          0.00032   0.10671   0.23606   0.15002   0.00000
  11        2S          0.00155   0.00095   0.15843   0.11908   0.00000
  12 3   H  1S          0.00032   0.10671  -0.23606   0.15002   0.00000
  13        2S          0.00155   0.00095  -0.15843   0.11908   0.00000
                           6         7         8         9        10
                           V         V         V         V         V
     Eigenvalues --     0.16656   0.25488   1.00524   1.02844   1.16340
   1 1   O  1S         -0.08079   0.00000   0.00000   0.04729   0.00000
   2        2S          0.11232   0.00000   0.00000  -0.30043   0.00000
   3        2PX         0.00000  -0.37870  -0.24797   0.00000   0.00000
   4        2PY         0.28494   0.00000   0.00000  -0.43794   0.00000
   5        2PZ         0.00000   0.00000   0.00000   0.00000  -0.95787
   6        3S          0.93363   0.00000   0.00000   0.43990   0.00000
   7        3PX         0.00000  -0.75771  -0.15890   0.00000   0.00000
   8        3PY         0.49670   0.00000   0.00000   0.11312   0.00000
   9        3PZ         0.00000   0.00000   0.00000   0.00000   1.04009
  10 2   H  1S         -0.09229   0.08620   0.93991   0.86620   0.00000
  11        2S         -0.87401   1.11592  -0.84692  -0.68380   0.00000
  12 3   H  1S         -0.09229  -0.08620  -0.93991   0.86620   0.00000
  13        2S         -0.87401  -1.11592   0.84692  -0.68380   0.00000
                          11        12        13
                           V         V         V
     Eigenvalues --     1.23352   1.36346   1.67820
   1 1   O  1S         -0.05550   0.00000   0.06215
   2        2S          0.51412   0.00000  -1.59344
   3        2PX         0.00000  -0.99384   0.00000
   4        2PY        -0.84699   0.00000  -0.31284
   5        2PZ         0.00000   0.00000   0.00000
   6        3S         -0.37300   0.00000   2.30397
   7        3PX         0.00000   1.53860   0.00000
   8        3PY         1.07809   0.00000   0.83516
   9        3PZ         0.00000   0.00000   0.00000
  10 2   H  1S         -0.28710  -0.16534  -0.44345
  11        2S          0.04963  -0.55637  -0.43966
  12 3   H  1S         -0.28710   0.16534  -0.44345
  13        2S          0.04963   0.55637  -0.43966
     Density Matrix:
                           1         2         3         4         5
   1 1   O  1S          2.08682
   2        2S         -0.18851   0.51828
   3        2PX         0.00000   0.00000   0.47122
   4        2PY         0.04369  -0.10937   0.00000   0.58065
   5        2PZ         0.00000   0.00000   0.00000   0.00000   0.83707
   6        3S         -0.27627   0.58955   0.00000  -0.20719   0.00000
   7        3PX         0.00000   0.00000   0.29647   0.00000   0.00000
   8        3PY         0.02519  -0.07981   0.00000   0.43884   0.00000
   9        3PZ         0.00000   0.00000   0.00000   0.00000   0.65243
  10 2   H  1S         -0.02479   0.05022   0.22916   0.17667   0.00000
  11        2S          0.01916  -0.04021   0.15380   0.12712   0.00000
  12 3   H  1S         -0.02479   0.05022  -0.22916   0.17667   0.00000
  13        2S          0.01916  -0.04021  -0.15380   0.12712   0.00000
                           6         7         8         9        10
   6        3S          0.68478
   7        3PX         0.00000   0.18653
   8        3PY        -0.15323   0.00000   0.33170
   9        3PZ         0.00000   0.00000   0.00000   0.50852
  10 2   H  1S          0.02956   0.14418   0.13402   0.00000   0.17924
  11        2S         -0.06346   0.09677   0.09597   0.00000   0.11073
  12 3   H  1S          0.02956  -0.14418   0.13402   0.00000  -0.04366
  13        2S         -0.06346  -0.09677   0.09597   0.00000  -0.03886
                          11        12        13
  11        2S          0.07857
  12 3   H  1S         -0.03886   0.17924
  13        2S         -0.02183   0.11073   0.07857
    Full Mulliken population analysis:
                           1         2         3         4         5
   1 1   O  1S          2.08682
   2        2S         -0.04405   0.51828
   3        2PX         0.00000   0.00000   0.47122
   4        2PY         0.00000   0.00000   0.00000   0.58065
   5        2PZ         0.00000   0.00000   0.00000   0.00000   0.83707
   6        3S         -0.04621   0.45021   0.00000   0.00000   0.00000
   7        3PX         0.00000   0.00000   0.14869   0.00000   0.00000
   8        3PY         0.00000   0.00000   0.00000   0.22009   0.00000
   9        3PZ         0.00000   0.00000   0.00000   0.00000   0.32721
  10 2   H  1S         -0.00046   0.00817   0.03737   0.02251   0.00000
  11        2S          0.00112  -0.01324   0.01776   0.01147   0.00000
  12 3   H  1S         -0.00046   0.00817   0.03737   0.02251   0.00000
  13        2S          0.00112  -0.01324   0.01776   0.01147   0.00000
                           6         7         8         9        10
   6        3S          0.68478
   7        3PX         0.00000   0.18653
   8        3PY         0.00000   0.00000   0.33170
   9        3PZ         0.00000   0.00000   0.00000   0.50852
  10 2   H  1S          0.01030   0.06198   0.04501   0.00000   0.17924
  11        2S         -0.03905   0.03791   0.02937   0.00000   0.07289
  12 3   H  1S          0.01030   0.06198   0.04501   0.00000  -0.00097
  13        2S         -0.03905   0.03791   0.02937   0.00000  -0.00626
                          11        12        13
  11        2S          0.07857
  12 3   H  1S         -0.00626   0.17924
  13        2S         -0.00919   0.07289   0.07857
     Gross orbital populations:
                           1
   1 1   O  1S          1.99786
   2        2S          0.91430
   3        2PX         0.73015
   4        2PY         0.86868
   5        2PZ         1.16428
   6        3S          1.03126
   7        3PX         0.53498
   8        3PY         0.70055
   9        3PZ         0.83572
  10 2   H  1S          0.42976
  11        2S          0.18135
  12 3   H  1S          0.42976
  13        2S          0.18135
          Condensed to atoms (all electrons):
               1          2          3
     1  O    8.317399   0.230190   0.230190
     2  H    0.230190   0.403594  -0.022674
     3  H    0.230190  -0.022674   0.403594
 Mulliken charges:
               1
     1  O   -0.777779
     2  H    0.388890
     3  H    0.388890
 Sum of Mulliken charges =   0.00000
 Mulliken charges with hydrogens summed into heavy atoms:
               1
     1  O    0.000000
 Electronic spatial extent (au):  <R**2>=             21.0086
 Charge=              0.0000 electrons
 Dipole moment (field-independent basis, Debye):
    X=              0.0000    Y=              2.6632    Z=              0.0000  Tot=              2.6632
 Quadrupole moment (field-independent basis, Debye-Ang):
   XX=             -3.9886   YY=             -5.8426   ZZ=             -7.5126
   XY=              0.0000   XZ=              0.0000   YZ=              0.0000
 Traceless Quadrupole moment (field-independent basis, Debye-Ang):
   XX=              1.7927   YY=             -0.0613   ZZ=             -1.7313
   XY=              0.0000   XZ=              0.0000   YZ=              0.0000
 Octapole moment (field-independent basis, Debye-Ang**2):
  XXX=              0.0000  YYY=              0.3738  ZZZ=              0.0000  XYY=              0.0000
  XXY=              1.5122  XXZ=              0.0000  XZZ=              0.0000  YZZ=             -0.1261
  YYZ=              0.0000  XYZ=              0.0000
 Hexadecapole moment (field-independent basis, Debye-Ang**3):
 XXXX=             -6.9121 YYYY=             -6.9769 ZZZZ=             -5.5334 XXXY=              0.0000
 XXXZ=              0.0000 YYYX=              0.0000 YYYZ=              0.0000 ZZZX=              0.0000
 ZZZY=              0.0000 XXYY=             -1.6193 XXZZ=             -2.4811 YYZZ=             -2.1905
 XXYZ=              0.0000 YYXZ=              0.0000 ZZXY=              0.0000
 N-N= 8.002366485626D+00 E-N=-1.963296409725D+02  KE= 7.553331820733D+01
 Orbital energies and kinetic energies (alpha):
                                 1                 2
   1         O               -20.588529         29.202914
   2         O                -1.293835          2.632876
   3         O                -0.637495          1.595824
   4         O                -0.540232          2.026823
   5         O                -0.496642          2.308222
   6         V                 0.166557          1.094638
   7         V                 0.254876          1.188793
   8         V                 1.005235          2.222632
   9         V                 1.028443          2.800848
  10         V                 1.163404          3.540968
  11         V                 1.233524          3.451771
  12         V                 1.363460          3.757633
  13         V                 1.678202          3.779208
 Total kinetic energy from orbitals= 7.553331820733D+01
 No NMR shielding tensors so no spin-rotation constants.
 Leave Link  601 at Tue Sep 22 13:39:17 2015, MaxMem=    33554432 cpu:               0.1 elap:               0.1
 (Enter /home/gauss/gdvi01p/gdv/l9999.exe)
 Unable to Open any file for archive entry.
 1\1\GINC-MEDUSA\SP\RHF\6-31G\H2O1\DBWY\22-Sep-2015\0\\#p hf/6-31G gfin
 put pop=full nosymm\\Water 6-31G\\0,1\O,0,0.,-0.0757918436,0.\H,0,0.86
 6811829,0.6014357793,0.\H,0,-0.866811829,0.6014357793,0.\\Version=ES64
 L-GDVRevI.01+\HF=-75.952529\RMSD=4.136e-09\Dipole=0.,1.0478008,0.\Quad
 rupole=1.3328159,-0.045604,-1.2872119,0.,0.,0.\PG=C02V [C2(O1),SGV(H2)
 ]\\@
 The archive entry for this job was punched.


 JUST WHEN YOU THINK YOU'VE GOT THE WORLD ON A STRING,
 YOU FIND OUT IT'S YOUR LEASH.
 Job cpu time:       0 days  0 hours  0 minutes  0.7 seconds.
 Elapsed time:       0 days  0 hours  0 minutes  0.5 seconds.
 File lengths (MBytes):  RWF=      5 Int=      0 D2E=      0 Chk=      1 Scr=      1
 Normal termination of Gaussian DV at Tue Sep 22 13:39:17 2015.
