 Entering Gaussian System, Link 0=gdv
 Input=Li_6-31G_ROHF.com
 Output=Li_6-31G_ROHF.log
 Initial command:
 /home/gauss/gdvi01p/gdv/l1.exe "/home/GauScr/Gau-32708.inp" -scrdir="/home/GauScr/"
 Entering Link 1 = /home/gauss/gdvi01p/gdv/l1.exe PID=     32709.
  
 Copyright (c) 1988,1990,1992,1993,1995,1998,2003,2009,2014,
            Gaussian, Inc.  All Rights Reserved.
  
 This is the private, development version of
 the Gaussian(R) DV system of programs. It is based on
 the Gaussian(R) 09 system (copyright 2009, Gaussian, Inc.),
 the Gaussian(R) 03 system (copyright 2003, Gaussian, Inc.),
 the Gaussian(R) 98 system (copyright 1998, Gaussian, Inc.),
 the Gaussian(R) 94 system (copyright 1995, Gaussian, Inc.),
 the Gaussian 92(TM) system (copyright 1992, Gaussian, Inc.),
 the Gaussian 90(TM) system (copyright 1990, Gaussian, Inc.),
 the Gaussian 88(TM) system (copyright 1988, Gaussian, Inc.),
 the Gaussian 86(TM) system (copyright 1986, Carnegie Mellon
 University), and the Gaussian 82(TM) system (copyright 1983,
 Carnegie Mellon University). Gaussian is a federally registered
 trademark of Gaussian, Inc.
  
 This software contains proprietary and confidential information,
 including trade secrets, belonging to Gaussian, Inc.
  
 This software is provided under written license and may be
 used, copied, transmitted, or stored only in accord with that
 written license.
  
 The following legend is applicable only to US Government
 contracts under FAR:
  
                    RESTRICTED RIGHTS LEGEND
  
 Use, reproduction and disclosure by the US Government is
 subject to restrictions as set forth in subparagraphs (a)
 and (c) of the Commercial Computer Software - Restricted
 Rights clause in FAR 52.227-19.
  
 Gaussian, Inc.
 340 Quinnipiac St., Bldg. 40, Wallingford CT 06492
  
  
 ---------------------------------------------------------------
 Warning -- This program may not be used in any manner that
 competes with the business of Gaussian, Inc. or will provide
 assistance to any competitor of Gaussian, Inc.  The licensee
 of this program is prohibited from giving any competitor of
 Gaussian, Inc. access to this program.  By using this program,
 the user acknowledges that Gaussian, Inc. is engaged in the
 business of creating and licensing software in the field of
 computational chemistry and represents and warrants to the
 licensee that it is not a competitor of Gaussian, Inc. and that
 it will not use this program in any manner prohibited above.
 ---------------------------------------------------------------
  

 Cite this work as:
 Gaussian Development Version, Revision I.01+,
 M. J. Frisch, G. W. Trucks, H. B. Schlegel, G. E. Scuseria, 
 M. A. Robb, J. R. Cheeseman, G. Scalmani, V. Barone, B. Mennucci, 
 G. A. Petersson, H. Nakatsuji, M. Caricato, X. Li, H. P. Hratchian, 
 A. F. Izmaylov, J. Bloino, B. G. Janesko, F. Lipparini, G. Zheng, 
 J. L. Sonnenberg, W. Liang, M. Hada, M. Ehara, K. Toyota, R. Fukuda, 
 J. Hasegawa, M. Ishida, T. Nakajima, Y. Honda, O. Kitao, H. Nakai, 
 T. Vreven, J. A. Montgomery, Jr., J. E. Peralta, F. Ogliaro, 
 M. Bearpark, J. J. Heyd, E. Brothers, K. N. Kudin, V. N. Staroverov, 
 T. Keith, R. Kobayashi, J. Normand, K. Raghavachari, A. Rendell, 
 J. C. Burant, S. S. Iyengar, J. Tomasi, M. Cossi, N. Rega, 
 J. M. Millam, M. Klene, J. E. Knox, J. B. Cross, V. Bakken, 
 C. Adamo, J. Jaramillo, R. Gomperts, R. E. Stratmann, O. Yazyev, 
 A. J. Austin, R. Cammi, C. Pomelli, J. W. Ochterski, R. L. Martin, 
 K. Morokuma, V. G. Zakrzewski, G. A. Voth, P. Salvador, 
 J. J. Dannenberg, S. Dapprich, P. V. Parandekar, N. J. Mayhall, 
 A. D. Daniels, O. Farkas, J. B. Foresman, J. V. Ortiz, 
 J. Cioslowski, and D. J. Fox, Gaussian, Inc., Wallingford CT, 2010.
 
 *******************************************
 Gaussian DV:  ES64L-GDVRevI.01+ 11-Sep-2014
                 22-Sep-2015 
 *******************************************
 --------------------
 #p rohf/6-31G nosymm
 --------------------
 1/38=1,172=1/1;
 2/12=2,15=1,17=6,18=5,40=1/2;
 3/5=1,6=6,11=2,25=1,30=1,116=101/1,2,3;
 4//1;
 5/5=2,38=5/2;
 6/7=2,8=2,9=2,10=2,28=1/1;
 99/5=1,9=1/99;
 Leave Link    1 at Tue Sep 22 13:39:20 2015, MaxMem=           0 cpu:               0.0 elap:               0.0
 (Enter /home/gauss/gdvi01p/gdv/l101.exe)
 --------
 Li 6-31G
 --------
 Symbolic Z-matrix:
 Charge =  0 Multiplicity = 2
 Li                    0.        0.        0. 
 
 ITRead=  0
 MicOpt= -1
 NAtoms=      1 NQM=        1 NQMF=       0 NMMI=      0 NMMIF=      0
                NMic=       0 NMicF=      0.
                    Isotopes and Nuclear Properties:
 (Nuclear quadrupole moments (NQMom) in fm**2, nuclear magnetic moments (NMagM)
  in nuclear magnetons)

  Atom         1
 IAtWgt=           7
 AtmWgt=   7.0160045
 NucSpn=           3
 AtZEff=   0.0000000
 NQMom=   -4.0100000
 NMagM=    3.2564240
 AtZNuc=   3.0000000
 Leave Link  101 at Tue Sep 22 13:39:20 2015, MaxMem=    33554432 cpu:               0.1 elap:               0.1
 (Enter /home/gauss/gdvi01p/gdv/l202.exe)
                          Input orientation:                          
 ---------------------------------------------------------------------
 Center     Atomic      Atomic             Coordinates (Angstroms)
 Number     Number       Type             X           Y           Z
 ---------------------------------------------------------------------
      1          3           0        0.000000    0.000000    0.000000
 ---------------------------------------------------------------------
 Symmetry turned off by external request.
 Stoichiometry    Li(2)
 Framework group  OH[O(Li)]
 Deg. of freedom     0
 Full point group                 OH      NOp  48
 Leave Link  202 at Tue Sep 22 13:39:20 2015, MaxMem=    33554432 cpu:               0.0 elap:               0.0
 (Enter /home/gauss/gdvi01p/gdv/l301.exe)
 Standard basis: 6-31G (6D, 7F)
 Ernie: Thresh=  0.10000D-02 Tol=  0.10000D-05 Strict=F.
     9 basis functions,    22 primitive gaussians,     9 cartesian basis functions
     2 alpha electrons        1 beta electrons
       nuclear repulsion energy         0.0000000000 Hartrees.
 IExCor=    0 DFT=F Ex=HF Corr=None ExCW=0 ScaHFX=  1.000000
 ScaDFX=  1.000000  1.000000  1.000000  1.000000 ScalE2=  1.000000  1.000000
 IRadAn=      0 IRanWt=     -1 IRanGd=            0 ICorTp=0 IEmpDi=  4
 NAtoms=    1 NActive=    1 NUniq=    1 SFac= 1.00D+00 NAtFMM=   60 NAOKFM=F Big=F
 Integral buffers will be    131072 words long.
 Raffenetti 2 integral format.
 Two-electron integral symmetry is turned off.
 Leave Link  301 at Tue Sep 22 13:39:20 2015, MaxMem=    33554432 cpu:               0.0 elap:               0.0
 (Enter /home/gauss/gdvi01p/gdv/l302.exe)
 NPDir=0 NMtPBC=     1 NCelOv=     1 NCel=       1 NClECP=     1 NCelD=      1
         NCelK=      1 NCelE2=     1 NClLst=     1 CellRange=     0.0.
 One-electron integrals computed using PRISM.
 One-electron integral symmetry used in STVInt
 NBasis=     9 RedAO= T EigKep=  9.35D-02  NBF=     9
 NBsUse=     9 1.00D-06 EigRej= -1.00D+00 NBFU=     9
 Leave Link  302 at Tue Sep 22 13:39:20 2015, MaxMem=    33554432 cpu:               0.1 elap:               0.1
 (Enter /home/gauss/gdvi01p/gdv/l303.exe)
 DipDrv:  MaxL=1.
 Leave Link  303 at Tue Sep 22 13:39:20 2015, MaxMem=    33554432 cpu:               0.0 elap:               0.0
 (Enter /home/gauss/gdvi01p/gdv/l401.exe)
 ExpMin= 3.60D-02 ExpMax= 6.42D+02 ExpMxC= 9.68D+01 IAcc=3 IRadAn=         5 AccDes= 0.00D+00
 Harris functional with IExCor=  205 and IRadAn=       5 diagonalized for initial guess.
 HarFok:  IExCor=  205 AccDes= 0.00D+00 IRadAn=         5 IDoV= 1 UseB2=F ITyADJ=14
 ICtDFT=  3500011 ScaDFX=  1.000000  1.000000  1.000000  1.000000
 FoFCou: FMM=F IPFlag=           0 FMFlag=      100000 FMFlg1=           0
         NFxFlg=           0 DoJE=T BraDBF=F KetDBF=T FulRan=T
         wScrn=  0.000000 ICntrl=       500 IOpCl=  0 I1Cent=   200000004 NGrid=           0
         NMat0=    1 NMatS0=      1 NMatT0=    0 NMatD0=    1 NMtDS0=    0 NMtDT0=    0
 Symmetry not used in FoFCou.
 Harris En= -7.38513761106954    
 JPrj=0 DoOrth=F DoCkMO=F.
 Leave Link  401 at Tue Sep 22 13:39:20 2015, MaxMem=    33554432 cpu:               0.1 elap:               0.1
 (Enter /home/gauss/gdvi01p/gdv/l502.exe)
 Keep R1 and R2 ints in memory in canonical form, NReq=804906.
 FoFCou: FMM=F IPFlag=           0 FMFlag=           0 FMFlg1=           0
         NFxFlg=           0 DoJE=F BraDBF=F KetDBF=F FulRan=T
         wScrn=  0.000000 ICntrl=       600 IOpCl=  0 I1Cent=           0 NGrid=           0
         NMat0=    1 NMatS0=     45 NMatT0=    0 NMatD0=    1 NMtDS0=    0 NMtDT0=    0
 Symmetry not used in FoFCou.
 Two-electron integral symmetry not used.
 Restricted open shell SCF:
 Using DIIS extrapolation, IDIIS=  1040.
 NGot=    33554432 LenX=    33551064 LenY=    33550182
 Requested convergence on RMS density matrix=1.00D-08 within 128 cycles.
 Requested convergence on MAX density matrix=1.00D-06.
 Requested convergence on             energy=1.00D-06.
 No special actions if energy rises.

 Cycle   1  Pass 1  IDiag  1:
 E= -7.43002879158905    
 DIIS: error= 1.39D-02 at cycle   1 NSaved=   1.
 NSaved= 1 IEnMin= 1 EnMin= -7.43002879158905     IErMin= 1 ErrMin= 1.39D-02
 ErrMax= 1.39D-02  0.00D+00 EMaxC= 1.00D-01 BMatC= 8.05D-04 BMatP= 8.05D-04
 IDIUse=3 WtCom= 8.61D-01 WtEn= 1.39D-01
 Coeff-Com:  0.100D+01
 Coeff-En:   0.100D+01
 Coeff:      0.100D+01
 Gap=     0.111 Goal=   None    Shift=    0.000
 GapD=    0.111 DampG=1.000 DampE=0.500 DampFc=0.5000 IDamp=-1.
 Damping current iteration by 5.00D-01
 RMSDP=7.89D-03 MaxDP=5.31D-02              OVMax= 1.21D-15

 Cycle   2  Pass 1  IDiag  1:
 E= -7.43058254933697     Delta-E=       -0.000553757748 Rises=F Damp=T
 DIIS: error= 7.26D-03 at cycle   2 NSaved=   2.
 NSaved= 2 IEnMin= 2 EnMin= -7.43058254933697     IErMin= 2 ErrMin= 7.26D-03
 ErrMax= 7.26D-03  0.00D+00 EMaxC= 1.00D-01 BMatC= 2.28D-04 BMatP= 8.05D-04
 IDIUse=3 WtCom= 9.27D-01 WtEn= 7.26D-02
 Coeff-Com: -0.111D+01 0.211D+01
 Coeff-En:   0.000D+00 0.100D+01
 Coeff:     -0.103D+01 0.203D+01
 Gap=     0.100 Goal=   None    Shift=    0.000
 RMSDP=3.05D-03 MaxDP=1.66D-02 DE=-5.54D-04 OVMax= 8.06D-03

 Cycle   3  Pass 1  IDiag  1:
 E= -7.43121244933189     Delta-E=       -0.000629899995 Rises=F Damp=F
 DIIS: error= 9.06D-04 at cycle   3 NSaved=   3.
 NSaved= 3 IEnMin= 3 EnMin= -7.43121244933189     IErMin= 3 ErrMin= 9.06D-04
 ErrMax= 9.06D-04  0.00D+00 EMaxC= 1.00D-01 BMatC= 5.09D-06 BMatP= 2.28D-04
 IDIUse=3 WtCom= 9.91D-01 WtEn= 9.06D-03
 Coeff-Com: -0.538D+00 0.978D+00 0.560D+00
 Coeff-En:   0.000D+00 0.000D+00 0.100D+01
 Coeff:     -0.533D+00 0.969D+00 0.564D+00
 Gap=     0.100 Goal=   None    Shift=    0.000
 RMSDP=1.32D-03 MaxDP=1.34D-02 DE=-6.30D-04 OVMax= 4.42D-03

 Cycle   4  Pass 1  IDiag  1:
 E= -7.43122869288145     Delta-E=       -0.000016243550 Rises=F Damp=F
 DIIS: error= 5.07D-04 at cycle   4 NSaved=   4.
 NSaved= 4 IEnMin= 4 EnMin= -7.43122869288145     IErMin= 4 ErrMin= 5.07D-04
 ErrMax= 5.07D-04  0.00D+00 EMaxC= 1.00D-01 BMatC= 1.40D-06 BMatP= 5.09D-06
 IDIUse=3 WtCom= 9.95D-01 WtEn= 5.07D-03
 Coeff-Com: -0.284D-01 0.684D-01-0.107D+01 0.203D+01
 Coeff-En:   0.000D+00 0.000D+00 0.000D+00 0.100D+01
 Coeff:     -0.282D-01 0.681D-01-0.106D+01 0.202D+01
 Gap=     0.100 Goal=   None    Shift=    0.000
 RMSDP=1.40D-03 MaxDP=1.43D-02 DE=-1.62D-05 OVMax= 4.78D-03

 Cycle   5  Pass 1  IDiag  1:
 E= -7.43123496494061     Delta-E=       -0.000006272059 Rises=F Damp=F
 DIIS: error= 3.44D-05 at cycle   5 NSaved=   5.
 NSaved= 5 IEnMin= 5 EnMin= -7.43123496494061     IErMin= 5 ErrMin= 3.44D-05
 ErrMax= 3.44D-05  0.00D+00 EMaxC= 1.00D-01 BMatC= 6.41D-09 BMatP= 1.40D-06
 IDIUse=1 WtCom= 1.00D+00 WtEn= 0.00D+00
 Large coefficients: NSaved=  5 BigCof=    0.00 CofMax=   10.00 Det= 7.12D-23
 Inversion failed.  Reducing to  4 matrices.
 Coeff-Com:  0.459D-02-0.299D+00 0.498D+00 0.796D+00
 Coeff:      0.459D-02-0.299D+00 0.498D+00 0.796D+00
 Gap=     0.100 Goal=   None    Shift=    0.000
 RMSDP=9.55D-05 MaxDP=9.71D-04 DE=-6.27D-06 OVMax= 3.28D-04

 Cycle   6  Pass 1  IDiag  1:
 E= -7.43123499357643     Delta-E=       -0.000000028636 Rises=F Damp=F
 DIIS: error= 1.95D-06 at cycle   6 NSaved=   5.
 NSaved= 5 IEnMin= 5 EnMin= -7.43123499357643     IErMin= 5 ErrMin= 1.95D-06
 ErrMax= 1.95D-06  0.00D+00 EMaxC= 1.00D-01 BMatC= 2.08D-11 BMatP= 6.41D-09
 IDIUse=1 WtCom= 1.00D+00 WtEn= 0.00D+00
 Large coefficients: NSaved=  5 BigCof=    0.00 CofMax=   10.00 Det=-3.25D-23
 Inversion failed.  Reducing to  4 matrices.
 Coeff-Com: -0.154D-03 0.114D-02-0.736D-01 0.107D+01
 Coeff:     -0.154D-03 0.114D-02-0.736D-01 0.107D+01
 Gap=     0.100 Goal=   None    Shift=    0.000
 RMSDP=5.77D-06 MaxDP=5.85D-05 DE=-2.86D-08 OVMax= 1.98D-05

 Cycle   7  Pass 1  IDiag  1:
 E= -7.43123499366702     Delta-E=       -0.000000000091 Rises=F Damp=F
 DIIS: error= 4.07D-09 at cycle   7 NSaved=   5.
 NSaved= 5 IEnMin= 5 EnMin= -7.43123499366702     IErMin= 5 ErrMin= 4.07D-09
 ErrMax= 4.07D-09  0.00D+00 EMaxC= 1.00D-01 BMatC= 1.06D-16 BMatP= 2.08D-11
 IDIUse=1 WtCom= 1.00D+00 WtEn= 0.00D+00
 Large coefficients: NSaved=  5 BigCof=    0.00 CofMax=   10.00 Det=-3.20D-27
 Inversion failed.  Reducing to  4 matrices.
 Coeff-Com:  0.666D-04-0.155D-01 0.255D+00 0.760D+00
 Coeff:      0.666D-04-0.155D-01 0.255D+00 0.760D+00
 Gap=     0.100 Goal=   None    Shift=    0.000
 RMSDP=4.59D-09 MaxDP=3.32D-08 DE=-9.06D-11 OVMax= 1.12D-08

 SCF Done:  E(ROHF) =  -7.43123499367     A.U. after    7 cycles
            NFock=  7  Conv=0.46D-08     -V/T= 1.9970
 <Sx>= 0.0000 <Sy>= 0.0000 <Sz>= 0.5000 <S**2>= 0.7500 S= 0.5000
 <L.S>= 0.000000000000E+00
 KE= 7.453443606230D+00 PE=-1.718159919243D+01 EE= 2.296920592529D+00
 Annihilation of the first spin contaminant:
 S**2 before annihilation     0.7500,   after     0.7500
 Leave Link  502 at Tue Sep 22 13:39:20 2015, MaxMem=    33554432 cpu:               0.1 elap:               0.1
 (Enter /home/gauss/gdvi01p/gdv/l601.exe)
 Copying SCF densities to generalized density rwf, IOpCl= 0 IROHF=1.

 **********************************************************************

            Population analysis using the SCF density.

 **********************************************************************

 Alpha  occ. eigenvalues --   -2.46657  -0.05054
 Alpha virt. eigenvalues --    0.04945   0.04945   0.04945   0.20620   0.21425
 Alpha virt. eigenvalues --    0.21425   0.21425
          Condensed to atoms (all electrons):
               1
     1  Li   3.000000
          Atomic-Atomic Spin Densities.
               1
     1  Li   1.000000
 Mulliken charges and spin densities:
               1          2
     1  Li   0.000000   1.000000
 Sum of Mulliken charges =   0.00000   1.00000
 Mulliken charges and spin densities with hydrogens summed into heavy atoms:
               1          2
     1  Li   0.000000   1.000000
 Electronic spatial extent (au):  <R**2>=             17.5033
 Charge=              0.0000 electrons
 Dipole moment (field-independent basis, Debye):
    X=              0.0000    Y=              0.0000    Z=              0.0000  Tot=              0.0000
 Quadrupole moment (field-independent basis, Debye-Ang):
   XX=             -7.8475   YY=             -7.8475   ZZ=             -7.8475
   XY=              0.0000   XZ=              0.0000   YZ=              0.0000
 Traceless Quadrupole moment (field-independent basis, Debye-Ang):
   XX=              0.0000   YY=              0.0000   ZZ=              0.0000
   XY=              0.0000   XZ=              0.0000   YZ=              0.0000
 Octapole moment (field-independent basis, Debye-Ang**2):
  XXX=              0.0000  YYY=              0.0000  ZZZ=              0.0000  XYY=              0.0000
  XXY=              0.0000  XXZ=              0.0000  XZZ=              0.0000  YZZ=              0.0000
  YYZ=              0.0000  XYZ=              0.0000
 Hexadecapole moment (field-independent basis, Debye-Ang**3):
 XXXX=            -35.3950 YYYY=            -35.3950 ZZZZ=            -35.3950 XXXY=              0.0000
 XXXZ=              0.0000 YYYX=              0.0000 YYYZ=              0.0000 ZZZX=              0.0000
 ZZZY=              0.0000 XXYY=            -11.7983 XXZZ=            -11.7983 YYZZ=            -11.7983
 XXYZ=              0.0000 YYXZ=              0.0000 ZZXY=              0.0000
 N-N= 0.000000000000D+00 E-N=-1.718159918605D+01  KE= 7.453443606230D+00
                          Isotropic Fermi Contact Couplings
        Atom                 a.u.       MegaHertz       Gauss      10(-4) cm-1
     1  Li(7)              0.19537     339.40788     121.10917     113.21428
 --------------------------------------------------------
       Center         ----  Spin Dipole Couplings  ----
                      3XX-RR        3YY-RR        3ZZ-RR
 --------------------------------------------------------
     1   Atom        0.000000      0.000000      0.000000
 --------------------------------------------------------
                        XY            XZ            YZ
 --------------------------------------------------------
     1   Atom        0.000000      0.000000      0.000000
 --------------------------------------------------------


 ---------------------------------------------------------------------------------
              Anisotropic Spin Dipole Couplings in Principal Axis System
 ---------------------------------------------------------------------------------

       Atom             a.u.   MegaHertz   Gauss  10(-4) cm-1        Axes

              Baa     0.0000     0.000     0.000     0.000  1.0000  0.0000  0.0000
     1 Li(7)  Bbb     0.0000     0.000     0.000     0.000  0.0000  1.0000  0.0000
              Bcc     0.0000     0.000     0.000     0.000  0.0000  0.0000  1.0000
 

 ---------------------------------------------------------------------------------

 No NMR shielding tensors so no spin-rotation constants.
 Leave Link  601 at Tue Sep 22 13:39:20 2015, MaxMem=    33554432 cpu:               0.2 elap:               0.2
 (Enter /home/gauss/gdvi01p/gdv/l9999.exe)
 Unable to Open any file for archive entry.
 1\1\GINC-MEDUSA\SP\ROHF\6-31G\Li1(2)\DBWY\22-Sep-2015\0\\#p rohf/6-31G
  nosymm\\Li 6-31G\\0,2\Li,0,0.,0.,0.\\Version=ES64L-GDVRevI.01+\HF=-7.
 431235\RMSD=4.592e-09\Dipole=0.,0.,0.\Quadrupole=0.,0.,0.,0.,0.,0.\PG=
 OH [O(Li1)]\\@
 The archive entry for this job was punched.


 KEEP CLOSE TO NATURES HEART, YOURSELF;
 AND BREAK CLEAR AWAY, ONCE IN A WHILE, AND
 CLIMB A MOUNTAIN OR SPEND A WEEK IN THE
 WOODS.  WASH YOUR SPIRIT CLEAN...
                                         -- JOHN MUIR
 Job cpu time:       0 days  0 hours  0 minutes  0.8 seconds.
 Elapsed time:       0 days  0 hours  0 minutes  0.6 seconds.
 File lengths (MBytes):  RWF=      5 Int=      0 D2E=      0 Chk=      1 Scr=      1
 Normal termination of Gaussian DV at Tue Sep 22 13:39:20 2015.
