 Entering Gaussian System, Link 0=gdv
 Input=Li_6-31G_CIS.com
 Output=Li_6-31G_CIS.log
 Initial command:
 /home/gauss/gdvi03p/gdv/l1.exe "/home/GauScr/Gau-20392.inp" -scrdir="/home/GauScr/"
 Entering Link 1 = /home/gauss/gdvi03p/gdv/l1.exe PID=     20393.
  
 Copyright (c) 1988,1990,1992,1993,1995,1998,2003,2009,2015,
            Gaussian, Inc.  All Rights Reserved.
  
 This is the private, development version of
 the Gaussian(R) DV system of programs. It is based on
 the Gaussian(R) 09 system (copyright 2009, Gaussian, Inc.),
 the Gaussian(R) 03 system (copyright 2003, Gaussian, Inc.),
 the Gaussian(R) 98 system (copyright 1998, Gaussian, Inc.),
 the Gaussian(R) 94 system (copyright 1995, Gaussian, Inc.),
 the Gaussian 92(TM) system (copyright 1992, Gaussian, Inc.),
 the Gaussian 90(TM) system (copyright 1990, Gaussian, Inc.),
 the Gaussian 88(TM) system (copyright 1988, Gaussian, Inc.),
 the Gaussian 86(TM) system (copyright 1986, Carnegie Mellon
 University), and the Gaussian 82(TM) system (copyright 1983,
 Carnegie Mellon University). Gaussian is a federally registered
 trademark of Gaussian, Inc.
  
 This software contains proprietary and confidential information,
 including trade secrets, belonging to Gaussian, Inc.
  
 This software is provided under written license and may be
 used, copied, transmitted, or stored only in accord with that
 written license.
  
 The following legend is applicable only to US Government
 contracts under FAR:
  
                    RESTRICTED RIGHTS LEGEND
  
 Use, reproduction and disclosure by the US Government is
 subject to restrictions as set forth in subparagraphs (a)
 and (c) of the Commercial Computer Software - Restricted
 Rights clause in FAR 52.227-19.
  
 Gaussian, Inc.
 340 Quinnipiac St., Bldg. 40, Wallingford CT 06492
  
  
 ---------------------------------------------------------------
 Warning -- This program may not be used in any manner that
 competes with the business of Gaussian, Inc. or will provide
 assistance to any competitor of Gaussian, Inc.  The licensee
 of this program is prohibited from giving any competitor of
 Gaussian, Inc. access to this program.  By using this program,
 the user acknowledges that Gaussian, Inc. is engaged in the
 business of creating and licensing software in the field of
 computational chemistry and represents and warrants to the
 licensee that it is not a competitor of Gaussian, Inc. and that
 it will not use this program in any manner prohibited above.
 ---------------------------------------------------------------
  

 Cite this work as:
 Gaussian Development Version, Revision I.03+,
 M. J. Frisch, G. W. Trucks, H. B. Schlegel, G. E. Scuseria, 
 M. A. Robb, J. R. Cheeseman, G. Scalmani, V. Barone, B. Mennucci, 
 G. A. Petersson, H. Nakatsuji, M. Caricato, X. Li, H. P. Hratchian, 
 J. Bloino, B. G. Janesko, A. F. Izmaylov, A. Marenich, F. Lipparini, 
 G. Zheng, J. L. Sonnenberg, W. Liang, M. Hada, M. Ehara, K. Toyota, 
 R. Fukuda, J. Hasegawa, M. Ishida, T. Nakajima, Y. Honda, O. Kitao, 
 H. Nakai, T. Vreven, K. Throssell, J. A. Montgomery, Jr., 
 J. E. Peralta, F. Ogliaro, M. Bearpark, J. J. Heyd, E. Brothers, 
 K. N. Kudin, V. N. Staroverov, T. Keith, R. Kobayashi, J. Normand, 
 K. Raghavachari, A. Rendell, J. C. Burant, S. S. Iyengar, J. Tomasi, 
 M. Cossi, N. Rega, J. M. Millam, M. Klene, J. E. Knox, J. B. Cross, 
 V. Bakken, C. Adamo, J. Jaramillo, R. Gomperts, R. E. Stratmann, 
 O. Yazyev, A. J. Austin, R. Cammi, C. Pomelli, J. W. Ochterski, 
 R. L. Martin, K. Morokuma, V. G. Zakrzewski, G. A. Voth, 
 P. Salvador, J. J. Dannenberg, S. Dapprich, P. V. Parandekar, 
 N. J. Mayhall, A. D. Daniels, O. Farkas, J. B. Foresman, 
 J. V. Ortiz, J. Cioslowski, and D. J. Fox, 
 Gaussian, Inc., Wallingford CT, 2014.
 
 *******************************************
 Gaussian DV:  ES64L-GDVRevI.03+  2-May-2015
                 28-Oct-2015 
 *******************************************
 ----------------------------------------
 #p uhf/6-31G nosymm cis(full,nstates=12)
 ----------------------------------------
 1/38=1,172=1/1;
 2/12=2,15=1,17=6,18=5,40=1/2;
 3/5=1,6=6,11=2,25=1,30=1,116=2/1,2,3,8;
 4//1;
 5/5=2,38=5/2;
 8/6=1,10=90,108=12/1,4;
 9/41=12,42=3/14;
 6/7=2,8=2,9=2,10=2/1;
 99/5=1,9=1/99;
 Leave Link    1 at Wed Oct 28 10:10:22 2015, MaxMem=           0 cpu:               0.0 elap:               0.0
 (Enter /home/gauss/gdvi03p/gdv/l101.exe)
 --------
 Li 6-31G
 --------
 Symbolic Z-matrix:
 Charge =  0 Multiplicity = 2
 Li                    0.        0.        0. 
 
 ITRead=  0
 MicOpt= -1
 NAtoms=      1 NQM=        1 NQMF=       0 NMMI=      0 NMMIF=      0
                NMic=       0 NMicF=      0.
                    Isotopes and Nuclear Properties:
 (Nuclear quadrupole moments (NQMom) in fm**2, nuclear magnetic moments (NMagM)
  in nuclear magnetons)

  Atom         1
 IAtWgt=           7
 AtmWgt=   7.0160045
 NucSpn=           3
 AtZEff=   0.0000000
 NQMom=   -4.0100000
 NMagM=    3.2564240
 AtZNuc=   3.0000000
 Leave Link  101 at Wed Oct 28 10:10:22 2015, MaxMem=    33554432 cpu:               0.1 elap:               0.1
 (Enter /home/gauss/gdvi03p/gdv/l202.exe)
                          Input orientation:                          
 ---------------------------------------------------------------------
 Center     Atomic      Atomic             Coordinates (Angstroms)
 Number     Number       Type             X           Y           Z
 ---------------------------------------------------------------------
      1          3           0        0.000000    0.000000    0.000000
 ---------------------------------------------------------------------
 Symmetry turned off by external request.
 Stoichiometry    Li(2)
 Framework group  OH[O(Li)]
 Deg. of freedom     0
 Full point group                 OH      NOp  48
 Leave Link  202 at Wed Oct 28 10:10:22 2015, MaxMem=    33554432 cpu:               0.0 elap:               0.0
 (Enter /home/gauss/gdvi03p/gdv/l301.exe)
 Standard basis: 6-31G (6D, 7F)
 Ernie: Thresh=  0.10000D-02 Tol=  0.10000D-05 Strict=F.
     9 basis functions,    22 primitive gaussians,     9 cartesian basis functions
     2 alpha electrons        1 beta electrons
       nuclear repulsion energy         0.0000000000 Hartrees.
 IExCor=    0 DFT=F Ex=HF Corr=None ExCW=0 ScaHFX=  1.000000
 ScaDFX=  1.000000  1.000000  1.000000  1.000000 ScalE2=  1.000000  1.000000
 IRadAn=      0 IRanWt=     -1 IRanGd=            0 ICorTp=0 IEmpDi=  4
 NAtoms=    1 NActive=    1 NUniq=    1 SFac= 1.00D+00 NAtFMM=   60 NAOKFM=F Big=F
 Integral buffers will be    131072 words long.
 Raffenetti 2 integral format.
 Two-electron integral symmetry is turned off.
 Leave Link  301 at Wed Oct 28 10:10:22 2015, MaxMem=    33554432 cpu:               0.0 elap:               0.1
 (Enter /home/gauss/gdvi03p/gdv/l302.exe)
 NPDir=0 NMtPBC=     1 NCelOv=     1 NCel=       1 NClECP=     1 NCelD=      1
         NCelK=      1 NCelE2=     1 NClLst=     1 CellRange=     0.0.
 One-electron integrals computed using PRISM.
 One-electron integral symmetry used in STVInt
 NBasis=     9 RedAO= T EigKep=  9.35D-02  NBF=     9
 NBsUse=     9 1.00D-06 EigRej= -1.00D+00 NBFU=     9
 Leave Link  302 at Wed Oct 28 10:10:22 2015, MaxMem=    33554432 cpu:               0.1 elap:               0.1
 (Enter /home/gauss/gdvi03p/gdv/l303.exe)
 DipDrv:  MaxL=1.
 Leave Link  303 at Wed Oct 28 10:10:22 2015, MaxMem=    33554432 cpu:               0.0 elap:               0.0
 (Enter /home/gauss/gdvi03p/gdv/l308.exe)
 Leave Link  308 at Wed Oct 28 10:10:22 2015, MaxMem=    33554432 cpu:               0.0 elap:               0.0
 (Enter /home/gauss/gdvi03p/gdv/l401.exe)
 ExpMin= 3.60D-02 ExpMax= 6.42D+02 ExpMxC= 9.68D+01 IAcc=3 IRadAn=         5 AccDes= 0.00D+00
 Harris functional with IExCor=  205 and IRadAn=       5 diagonalized for initial guess.
 HarFok:  IExCor=  205 AccDes= 0.00D+00 IRadAn=         5 IDoV= 1 UseB2=F ITyADJ=14
 ICtDFT=  3500011 ScaDFX=  1.000000  1.000000  1.000000  1.000000
 FoFCou: FMM=F IPFlag=           0 FMFlag=      100000 FMFlg1=           0
         NFxFlg=           0 DoJE=T BraDBF=F KetDBF=T FulRan=T
         wScrn=  0.000000 ICntrl=       500 IOpCl=  0 I1Cent=   200000004 NGrid=           0
         NMat0=    1 NMatS0=      1 NMatT0=    0 NMatD0=    1 NMtDS0=    0 NMtDT0=    0
 Symmetry not used in FoFCou.
 Harris En= -7.38513761106955    
 JPrj=0 DoOrth=F DoCkMO=F.
 Initial guess <Sx>= 0.0000 <Sy>= 0.0000 <Sz>= 0.5000 <S**2>= 0.7500 S= 0.5000
 Leave Link  401 at Wed Oct 28 10:10:22 2015, MaxMem=    33554432 cpu:               0.1 elap:               0.1
 (Enter /home/gauss/gdvi03p/gdv/l502.exe)
 Keep R1 and R2 ints in memory in canonical form, NReq=804906.
 FoFCou: FMM=F IPFlag=           0 FMFlag=           0 FMFlg1=           0
         NFxFlg=           0 DoJE=F BraDBF=F KetDBF=F FulRan=T
         wScrn=  0.000000 ICntrl=       600 IOpCl=  0 I1Cent=           0 NGrid=           0
         NMat0=    1 NMatS0=     45 NMatT0=    0 NMatD0=    1 NMtDS0=    0 NMtDT0=    0
 Symmetry not used in FoFCou.
 Two-electron integral symmetry not used.
 UHF open shell SCF:
 Using DIIS extrapolation, IDIIS=  1040.
 NGot=    33554432 LenX=    33551064 LenY=    33550182
 Requested convergence on RMS density matrix=1.00D-08 within 128 cycles.
 Requested convergence on MAX density matrix=1.00D-06.
 Requested convergence on             energy=1.00D-06.
 No special actions if energy rises.

 Cycle   1  Pass 1  IDiag  1:
 E= -7.43002879158905    
 DIIS: error= 1.71D-02 at cycle   1 NSaved=   1.
 NSaved= 1 IEnMin= 1 EnMin= -7.43002879158905     IErMin= 1 ErrMin= 1.71D-02
 ErrMax= 1.71D-02  0.00D+00 EMaxC= 1.00D-01 BMatC= 5.27D-03 BMatP= 5.27D-03
 IDIUse=3 WtCom= 8.29D-01 WtEn= 1.71D-01
 Coeff-Com:  0.100D+01
 Coeff-En:   0.100D+01
 Coeff:      0.100D+01
 Gap=     0.240 Goal=   None    Shift=    0.000
 Gap=     2.507 Goal=   None    Shift=    0.000
 GapD=    0.240 DampG=1.000 DampE=0.500 DampFc=0.5000 IDamp=-1.
 Damping current iteration by 5.00D-01
 RMSDP=6.63D-03 MaxDP=3.48D-02              OVMax= 1.27D-02

 Cycle   2  Pass 1  IDiag  1:
 E= -7.43058235411420     Delta-E=       -0.000553562525 Rises=F Damp=T
 DIIS: error= 9.79D-03 at cycle   2 NSaved=   2.
 NSaved= 2 IEnMin= 2 EnMin= -7.43058235411420     IErMin= 2 ErrMin= 9.79D-03
 ErrMax= 9.79D-03  0.00D+00 EMaxC= 1.00D-01 BMatC= 1.66D-03 BMatP= 5.27D-03
 IDIUse=3 WtCom= 9.02D-01 WtEn= 9.79D-02
 Coeff-Com: -0.127D+01 0.227D+01
 Coeff-En:   0.000D+00 0.100D+01
 Coeff:     -0.115D+01 0.215D+01
 Gap=     0.233 Goal=   None    Shift=    0.000
 Gap=     2.494 Goal=   None    Shift=    0.000
 RMSDP=4.75D-03 MaxDP=3.16D-02 DE=-5.54D-04 OVMax= 4.71D-03

 Cycle   3  Pass 1  IDiag  1:
 E= -7.43123388091123     Delta-E=       -0.000651526797 Rises=F Damp=F
 DIIS: error= 3.02D-04 at cycle   3 NSaved=   3.
 NSaved= 3 IEnMin= 3 EnMin= -7.43123388091123     IErMin= 3 ErrMin= 3.02D-04
 ErrMax= 3.02D-04  0.00D+00 EMaxC= 1.00D-01 BMatC= 1.26D-06 BMatP= 1.66D-03
 IDIUse=3 WtCom= 9.97D-01 WtEn= 3.02D-03
 Coeff-Com:  0.399D+00-0.731D+00 0.133D+01
 Coeff-En:   0.000D+00 0.000D+00 0.100D+01
 Coeff:      0.398D+00-0.729D+00 0.133D+01
 Gap=     0.233 Goal=   None    Shift=    0.000
 Gap=     2.494 Goal=   None    Shift=    0.000
 RMSDP=6.26D-04 MaxDP=6.40D-03 DE=-6.52D-04 OVMax= 2.15D-03

 Cycle   4  Pass 1  IDiag  1:
 E= -7.43123570300319     Delta-E=       -0.000001822092 Rises=F Damp=F
 DIIS: error= 7.24D-05 at cycle   4 NSaved=   4.
 NSaved= 4 IEnMin= 4 EnMin= -7.43123570300319     IErMin= 4 ErrMin= 7.24D-05
 ErrMax= 7.24D-05  0.00D+00 EMaxC= 1.00D-01 BMatC= 5.21D-08 BMatP= 1.26D-06
 IDIUse=1 WtCom= 1.00D+00 WtEn= 0.00D+00
 Coeff-Com: -0.166D+00 0.308D+00-0.713D+00 0.157D+01
 Coeff:     -0.166D+00 0.308D+00-0.713D+00 0.157D+01
 Gap=     0.233 Goal=   None    Shift=    0.000
 Gap=     2.493 Goal=   None    Shift=    0.000
 RMSDP=2.04D-04 MaxDP=2.08D-03 DE=-1.82D-06 OVMax= 7.02D-04

 Cycle   5  Pass 1  IDiag  1:
 E= -7.43123581477228     Delta-E=       -0.000000111769 Rises=F Damp=F
 DIIS: error= 4.36D-07 at cycle   5 NSaved=   5.
 NSaved= 5 IEnMin= 5 EnMin= -7.43123581477228     IErMin= 5 ErrMin= 4.36D-07
 ErrMax= 4.36D-07  0.00D+00 EMaxC= 1.00D-01 BMatC= 2.83D-12 BMatP= 5.21D-08
 IDIUse=1 WtCom= 1.00D+00 WtEn= 0.00D+00
 Coeff-Com:  0.793D-02-0.147D-01 0.342D-01-0.762D-01 0.105D+01
 Coeff:      0.793D-02-0.147D-01 0.342D-01-0.762D-01 0.105D+01
 Gap=     0.233 Goal=   None    Shift=    0.000
 Gap=     2.493 Goal=   None    Shift=    0.000
 RMSDP=2.79D-07 MaxDP=2.28D-06 DE=-1.12D-07 OVMax= 7.66D-07

 Cycle   6  Pass 1  IDiag  1:
 E= -7.43123581477301     Delta-E=       -0.000000000001 Rises=F Damp=F
 DIIS: error= 1.58D-08 at cycle   6 NSaved=   6.
 NSaved= 6 IEnMin= 6 EnMin= -7.43123581477301     IErMin= 6 ErrMin= 1.58D-08
 ErrMax= 1.58D-08  0.00D+00 EMaxC= 1.00D-01 BMatC= 5.70D-15 BMatP= 2.83D-12
 IDIUse=1 WtCom= 1.00D+00 WtEn= 0.00D+00
 Coeff-Com: -0.416D-04 0.801D-04-0.198D-03 0.472D-03-0.267D-01 0.103D+01
 Coeff:     -0.416D-04 0.801D-04-0.198D-03 0.472D-03-0.267D-01 0.103D+01
 Gap=     0.233 Goal=   None    Shift=    0.000
 Gap=     2.493 Goal=   None    Shift=    0.000
 RMSDP=9.74D-09 MaxDP=6.24D-08 DE=-7.28D-13 OVMax= 2.09D-08

 SCF Done:  E(UHF) =  -7.43123581477     A.U. after    6 cycles
            NFock=  6  Conv=0.97D-08     -V/T= 1.9970
 <Sx>= 0.0000 <Sy>= 0.0000 <Sz>= 0.5000 <S**2>= 0.7500 S= 0.5000
 <L.S>= 0.000000000000E+00
 KE= 7.453422379812D+00 PE=-1.718157288412D+01 EE= 2.296914689530D+00
 Annihilation of the first spin contaminant:
 S**2 before annihilation     0.7500,   after     0.7500
 Leave Link  502 at Wed Oct 28 10:10:22 2015, MaxMem=    33554432 cpu:               0.1 elap:               0.1
 (Enter /home/gauss/gdvi03p/gdv/l801.exe)
 Range of M.O.s used for correlation:     1     9
 NBasis=     9 NAE=     2 NBE=     1 NFC=     0 NFV=     0
 NROrb=      9 NOA=     2 NOB=     1 NVA=     7 NVB=     8
 Leave Link  801 at Wed Oct 28 10:10:22 2015, MaxMem=    33554432 cpu:               0.0 elap:               0.0
 (Enter /home/gauss/gdvi03p/gdv/l804.exe)
 Open-shell transformation, MDV=    33554432 ITran=3 ISComp=1.
 Unit  1 TFree=          6711 TCopy=        167902.
 Semi-Direct transformation.
 ModeAB=           2 MOrb=             2 LenV=      33433692
 LASXX=          232 LTotXX=         232 LenRXX=         232
 LTotAB=         261 MaxLAS=         810 LenRXY=         810
 NonZer=        1026 LenScr=      785920 LnRSAI=           0
 LnScr1=           0 LExtra=           0 Total=       786962
 MaxDsk=          -1 SrtSym=           F ITran=            3
 DoSDTr:  NPSUse=  1
 JobTyp=1 Pass  1:  I=   1 to   2.
 (rs|ai) integrals will be sorted in core.
 Complete sort for first half transformation.
 First half transformation complete.
 Complete sort for second half transformation.
 Second half transformation complete.
 ModeAB=           2 MOrb=             1 LenV=      33433692
 LASXX=           64 LTotXX=          64 LenRXX=         405
 LTotAB=          28 MaxLAS=         405 LenRXY=          28
 NonZer=         513 LenScr=      785920 LnRSAI=           0
 LnScr1=           0 LExtra=           0 Total=       786353
 MaxDsk=          -1 SrtSym=           F ITran=            3
 DoSDTr:  NPSUse=  1
 JobTyp=2 Pass  1:  I=   1 to   1.
 (rs|ai) integrals will be sorted in core.
 Complete sort for first half transformation.
 First half transformation complete.
 Complete sort for second half transformation.
 Second half transformation complete.
 Spin components of T(2) and E(2):
     alpha-alpha T2 =       0.6506922839D-05 E2=     -0.1897683800D-04
     alpha-beta  T2 =       0.7068327511D-04 E2=     -0.2653319764D-03
     beta-beta   T2 =       0.0000000000D+00 E2=      0.0000000000D+00
 ANorm=    0.1000038594D+01
 E2 =    -0.2843088143D-03 EUMP2 =    -0.74315201235874D+01
 (S**2,0)=  0.75000D+00           (S**2,1)=  0.75000D+00
 E(PUHF)=      -0.74312363588D+01        E(PMP2)=      -0.74315202232D+01
 Leave Link  804 at Wed Oct 28 10:10:22 2015, MaxMem=    33554432 cpu:               0.1 elap:               0.1
 (Enter /home/gauss/gdvi03p/gdv/l914.exe)
 UHF ground state
 MDV=    33554432 DFT=F DoStab=F Mixed=F DoRPA=F DoScal=F NonHer=F
 Making orbital integer symmetry assigments:
 FoFJK:  IHMeth= 1 ICntrl=       0 DoSepK=F KAlg= 0 I1Cent=           0 FoldK=F
 IRaf=         0 NMat=       2 IRICut=       1 DoRegI=T DoRafI=F ISym2E= 0 IDoP0=0 IntGTp=1.
 FoFCou: FMM=F IPFlag=           0 FMFlag=      100000 FMFlg1=           0
         NFxFlg=           0 DoJE=F BraDBF=F KetDBF=F FulRan=T
         wScrn=  0.000000 ICntrl=         0 IOpCl=  1 I1Cent=           0 NGrid=           0
         NMat0=    2 NMatS0=      2 NMatT0=    0 NMatD0=    2 NMtDS0=    0 NMtDT0=    0
 Symmetry not used in FoFCou.
    12 initial guesses have been made.
 Convergence on wavefunction:    0.001000000000000
 Davidson Disk Diagonalization:  ConvIn= 1.00D-03 SkipCon=T Conv= 1.00D-03.
 Max sub-space:   200 roots to seek:    12 dimension of matrix:           22
 Iteration     1 Dimension    12 NMult     0 NNew     12
 New state      4 was old state      5
 New state      5 was old state      4
 New state      9 was old state     12
 New state     11 was old state      9
 New state     12 was old state     11
 Excitation Energies [eV] at current iteration:
 Root      1 :     1.936086918179007
 Root      2 :     1.936824648322979
 Root      3 :     1.936824648323015
 Root      4 :     5.749140926789776
 Root      5 :     5.749966545882851
 Root      6 :     5.749966545882858
 Root      7 :     6.143392535545984
 Root      8 :    59.259174731137410
 Root      9 :    60.704384952850750
 Root     10 :    61.597029538475730
 Root     11 :    61.597029538475790
 Root     12 :    61.633376473378440
 Iteration     2 Dimension    22 NMult    12 NNew     10
 Root      1 not converged, maximum delta is    0.723775086395052
 New state      2 was old state      3
 Root      2 not converged, maximum delta is    0.576155812360836
 New state      3 was old state      2
 Root      3 not converged, maximum delta is    0.755876182074405
 New state      4 was old state      6
 Root      4 not converged, maximum delta is    0.584171373875289
 New state      5 was old state      4
 Root      5 not converged, maximum delta is    0.723540287623844
 New state      6 was old state      5
 Root      6 not converged, maximum delta is    0.408521107154849
 Root      7 has converged.
 Root      8 not converged, maximum delta is    0.041962082514419
 New state      9 was old state     11
 Root      9 not converged, maximum delta is    0.586248006857991
 New state     10 was old state      9
 Root     10 not converged, maximum delta is    0.401861778940084
 New state     11 was old state     10
 Root     11 not converged, maximum delta is    0.621654834549383
 Root     12 not converged, maximum delta is    0.537169899665802
 Excitation Energies [eV] at current iteration:
 Root      1 :     1.934999521113498   Change is   -0.001087397065509
 Root      2 :     1.934999521113522   Change is   -0.001825127209493
 Root      3 :     1.934999521113528   Change is   -0.001825127209451
 Root      4 :     5.747972736177974   Change is   -0.001993809704883
 Root      5 :     5.747972736177981   Change is   -0.001168190611796
 Root      6 :     5.747972736177986   Change is   -0.001993809704865
 Root      7 :     6.143381724062014   Change is   -0.000010811483970
 Root      8 :    59.247255367524640   Change is   -0.011919363612771
 Root      9 :    60.519241819450080   Change is   -1.077787719025708
 Root     10 :    60.519241819450120   Change is   -0.185143133400635
 Root     11 :    60.519241819450170   Change is   -1.077787719025563
 Root     12 :    61.633075322460030   Change is   -0.000301150918414
 Convergence achieved on expansion vectors.
 ***********************************************************************
 Excited states from <AA,BB:AA,BB> singles matrix:
 ***********************************************************************
 
 ExtSpn:  IState=     1 X2= 1.000 Y2= 0.000 X2-Y2-1=-4.44D-16
          S2Grnd=  0.750 Ra=  0.000 Rb=  0.000 T=  0.000 S2Ext=  0.000 S2=  0.750
 ExtSpn:  IState=     2 X2= 1.000 Y2= 0.000 X2-Y2-1=-1.11D-16
          S2Grnd=  0.750 Ra=  0.000 Rb=  0.000 T=  0.000 S2Ext=  0.000 S2=  0.750
 ExtSpn:  IState=     3 X2= 1.000 Y2= 0.000 X2-Y2-1= 2.22D-16
          S2Grnd=  0.750 Ra=  0.000 Rb=  0.000 T=  0.000 S2Ext=  0.000 S2=  0.750
 ExtSpn:  IState=     4 X2= 1.000 Y2= 0.000 X2-Y2-1= 4.44D-16
          S2Grnd=  0.750 Ra=  0.000 Rb=  0.000 T=  0.000 S2Ext=  0.000 S2=  0.750
 ExtSpn:  IState=     5 X2= 1.000 Y2= 0.000 X2-Y2-1= 4.44D-16
          S2Grnd=  0.750 Ra=  0.000 Rb=  0.000 T=  0.000 S2Ext=  0.000 S2=  0.750
 ExtSpn:  IState=     6 X2= 1.000 Y2= 0.000 X2-Y2-1=-1.11D-16
          S2Grnd=  0.750 Ra=  0.000 Rb=  0.000 T=  0.000 S2Ext=  0.000 S2=  0.750
 ExtSpn:  IState=     7 X2= 1.000 Y2= 0.000 X2-Y2-1= 1.11D-15
          S2Grnd=  0.750 Ra=  0.000 Rb=  0.000 T=  0.000 S2Ext=  0.000 S2=  0.750
 ExtSpn:  IState=     8 X2= 1.000 Y2= 0.000 X2-Y2-1=-6.66D-16
          S2Grnd=  0.750 Ra=  0.002 Rb=  0.044 T=  0.018 S2Ext=  0.063 S2=  0.813
 ExtSpn:  IState=     9 X2= 1.000 Y2= 0.000 X2-Y2-1=-8.88D-16
          S2Grnd=  0.750 Ra=  0.960 Rb=  0.040 T=  0.386 S2Ext=  1.386 S2=  2.136
 ExtSpn:  IState=    10 X2= 1.000 Y2= 0.000 X2-Y2-1=-3.33D-16
          S2Grnd=  0.750 Ra=  0.960 Rb=  0.040 T=  0.386 S2Ext=  1.386 S2=  2.136
 ExtSpn:  IState=    11 X2= 1.000 Y2= 0.000 X2-Y2-1= 8.88D-16
          S2Grnd=  0.750 Ra=  0.960 Rb=  0.040 T=  0.386 S2Ext=  1.386 S2=  2.136
 ExtSpn:  IState=    12 X2= 1.000 Y2= 0.000 X2-Y2-1=-5.55D-16
          S2Grnd=  0.750 Ra=  0.040 Rb=  0.960 T= -0.386 S2Ext=  0.614 S2=  1.364
 1PDM for each excited state written to RWF  633
 Ground to excited state transition densities written to RWF  633
 Ground to excited state transition electric dipole moments (Au):
       state          X           Y           Z        Dip. S.      Osc.
         1        -1.0827     -1.9334     -0.6753      5.3664      0.2544
         2         1.7163     -0.4399     -1.4923      5.3664      0.2544
         3        -1.1173      1.1978     -1.6381      5.3664      0.2544
         4         0.0246      0.0707     -0.3450      0.1246      0.0175
         5         0.1352     -0.3212     -0.0562      0.1246      0.0175
         6         0.3251      0.1282      0.0495      0.1246      0.0175
         7         0.0000      0.0000      0.0000      0.0000      0.0000
         8         0.0000      0.0000      0.0000      0.0000      0.0000
         9        -0.0022      0.0609      0.1086      0.0155      0.0230
        10        -0.0996     -0.0661      0.0350      0.0155      0.0230
        11         0.0748     -0.0862      0.0499      0.0155      0.0230
        12        -0.1623     -0.0916     -0.0285      0.0356      0.0537
 Ground to excited state transition velocity dipole moments (Au):
       state          X           Y           Z        Dip. S.      Osc.
         1         0.0811      0.1448      0.0506      0.0301      0.2823
         2        -0.1286      0.0330      0.1118      0.0301      0.2823
         3         0.0837     -0.0897      0.1227      0.0301      0.2823
         4        -0.0076     -0.0217      0.1058      0.0117      0.0370
         5        -0.0415      0.0985      0.0172      0.0117      0.0370
         6        -0.0997     -0.0393     -0.0152      0.0117      0.0370
         7         0.0000      0.0000      0.0000      0.0000      0.0000
         8         0.0000      0.0000      0.0000      0.0000      0.0000
         9         0.0044     -0.1208     -0.2153      0.0610      0.0183
        10         0.1975      0.1311     -0.0695      0.0610      0.0183
        11        -0.1483      0.1709     -0.0989      0.0610      0.0183
        12         0.3184      0.1796      0.0559      0.1368      0.0403
 Ground to excited state transition magnetic dipole moments (Au):
       state          X           Y           Z
         1         0.0000      0.0000      0.0000
         2         0.0000      0.0000      0.0000
         3         0.0000      0.0000      0.0000
         4         0.0000      0.0000      0.0000
         5         0.0000      0.0000      0.0000
         6         0.0000      0.0000      0.0000
         7         0.0000      0.0000      0.0000
         8         0.0000      0.0000      0.0000
         9         0.0000      0.0000      0.0000
        10         0.0000      0.0000      0.0000
        11         0.0000      0.0000      0.0000
        12         0.0000      0.0000      0.0000
 Ground to excited state transition velocity quadrupole moments (Au):
       state          XX          YY          ZZ          XY          XZ          YZ
         1         0.0000      0.0000      0.0000      0.0000      0.0000      0.0000
         2         0.0000      0.0000      0.0000      0.0000      0.0000      0.0000
         3         0.0000      0.0000      0.0000      0.0000      0.0000      0.0000
         4         0.0000      0.0000      0.0000      0.0000      0.0000      0.0000
         5         0.0000      0.0000      0.0000      0.0000      0.0000      0.0000
         6         0.0000      0.0000      0.0000      0.0000      0.0000      0.0000
         7        -0.7814     -0.7814     -0.7814      0.0000      0.0000      0.0000
         8         0.2289      0.2289      0.2289      0.0000      0.0000      0.0000
         9         0.0000      0.0000      0.0000      0.0000      0.0000      0.0000
        10         0.0000      0.0000      0.0000      0.0000      0.0000      0.0000
        11         0.0000      0.0000      0.0000      0.0000      0.0000      0.0000
        12         0.0000      0.0000      0.0000      0.0000      0.0000      0.0000
 <0|del|b> * <b|rxdel|0> + <0|del|b> * <b|delr+rdel|0>
 Rotatory Strengths (R) in cgs (10**-40 erg-esu-cm/Gauss)
       state          XX          YY          ZZ    R(velocity)    E-M Angle
         1         0.0000      0.0000      0.0000      0.0000       90.00
         2         0.0000      0.0000      0.0000      0.0000       90.00
         3         0.0000      0.0000      0.0000      0.0000       90.00
         4         0.0000      0.0000      0.0000      0.0000       90.00
         5         0.0000      0.0000      0.0000      0.0000       90.00
         6         0.0000      0.0000      0.0000      0.0000       90.00
         7         0.0000      0.0000      0.0000      0.0000       90.00
         8         0.0000      0.0000      0.0000      0.0000       90.00
         9         0.0000      0.0000      0.0000      0.0000       90.00
        10         0.0000      0.0000      0.0000      0.0000       90.00
        11         0.0000      0.0000      0.0000      0.0000       90.00
        12         0.0000      0.0000      0.0000      0.0000       90.00
 1/2[<0|r|b>*<b|rxdel|0> + (<0|rxdel|b>*<b|r|0>)*]
 Rotatory Strengths (R) in cgs (10**-40 erg-esu-cm/Gauss)
       state          XX          YY          ZZ     R(length)
         1         0.0000      0.0000      0.0000      0.0000
         2         0.0000      0.0000      0.0000      0.0000
         3         0.0000      0.0000      0.0000      0.0000
         4         0.0000      0.0000      0.0000      0.0000
         5         0.0000      0.0000      0.0000      0.0000
         6         0.0000      0.0000      0.0000      0.0000
         7         0.0000      0.0000      0.0000      0.0000
         8         0.0000      0.0000      0.0000      0.0000
         9         0.0000      0.0000      0.0000      0.0000
        10         0.0000      0.0000      0.0000      0.0000
        11         0.0000      0.0000      0.0000      0.0000
        12         0.0000      0.0000      0.0000      0.0000
  1/2[<0|del|b>*<b|r|0> + (<0|r|b>*<b|del|0>)*] (Au)
       state          X           Y           Z        Dip. S.   Osc.(frdel)
         1        -0.0878     -0.2800     -0.0342      0.4020      0.2680
         2        -0.2207     -0.0145     -0.1668      0.4020      0.2680
         3        -0.0935     -0.1075     -0.2010      0.4020      0.2680
         4        -0.0002     -0.0015     -0.0365      0.0382      0.0255
         5        -0.0056     -0.0316     -0.0010      0.0382      0.0255
         6        -0.0324     -0.0050     -0.0008      0.0382      0.0255
         7         0.0000      0.0000      0.0000      0.0000      0.0000
         8         0.0000      0.0000      0.0000      0.0000      0.0000
         9         0.0000     -0.0074     -0.0234      0.0308      0.0205
        10        -0.0197     -0.0087     -0.0024      0.0308      0.0205
        11        -0.0111     -0.0147     -0.0049      0.0308      0.0205
        12        -0.0517     -0.0164     -0.0016      0.0697      0.0465

 Excitation energies and oscillator strengths:
 
 Excited state symmetry could not be determined.
 Excited State   1:  2.000-?Sym    1.9350 eV  640.75 nm  f=0.2544  <S**2>=0.750
      2A ->  3A        0.51239
      2A ->  4A        0.60643
      2A ->  5A        0.57252
      2A ->  9A        0.18228
 This state for optimization and/or second-order correction.
 Total Energy, E(CIS) =  -7.36012589079    
 Copying the excited state density for this state as the 1-particle RhoCI density.
 
 Excited state symmetry could not be determined.
 Excited State   2:  2.000-?Sym    1.9350 eV  640.75 nm  f=0.2544  <S**2>=0.750
      2A ->  4A        0.64667
      2A ->  5A       -0.73283
      2A ->  7A       -0.18010
 
 Excited state symmetry could not be determined.
 Excited State   3:  2.000-?Sym    1.9350 eV  640.75 nm  f=0.2544  <S**2>=0.750
      2A ->  3A        0.83228
      2A ->  4A       -0.41489
      2A ->  5A       -0.30539
      2A ->  8A        0.19040
 
 Excited state symmetry could not be determined.
 Excited State   4:  2.000-?Sym    5.7480 eV  215.70 nm  f=0.0175  <S**2>=0.750
      2A ->  3A        0.14874
      2A ->  5A       -0.13695
      2A ->  7A        0.34436
      2A ->  8A       -0.85817
      2A ->  9A        0.32097
 
 Excited state symmetry could not be determined.
 Excited State   5:  2.000-?Sym    5.7480 eV  215.70 nm  f=0.0175  <S**2>=0.750
      2A ->  4A        0.20216
      2A ->  7A        0.86674
      2A ->  8A        0.19394
      2A ->  9A       -0.41136
 
 Excited state symmetry could not be determined.
 Excited State   6:  2.000-?Sym    5.7480 eV  215.70 nm  f=0.0175  <S**2>=0.750
      2A ->  3A       -0.13901
      2A ->  5A       -0.15018
      2A ->  7A        0.29707
      2A ->  8A        0.42895
      2A ->  9A        0.82814
 
 Excited state symmetry could not be determined.
 Excited State   7:  2.000-?Sym    6.1434 eV  201.82 nm  f=0.0000  <S**2>=0.750
      2A ->  6A        1.00000
 
 Excited state symmetry could not be determined.
 Excited State   8:  2.062-?Sym   59.2473 eV   20.93 nm  f=0.0000  <S**2>=0.813
      1B ->  2B        0.89752
      1B ->  9B        0.43898
 
 Excited state symmetry could not be determined.
 Excited State   9:  3.089-?Sym   60.5192 eV   20.49 nm  f=0.0230  <S**2>=2.136
      1A ->  3A       -0.52993
      1A ->  4A       -0.54184
      1A ->  5A        0.17758
      1A ->  7A        0.41827
      1A ->  8A       -0.39844
      1A ->  9A       -0.14307
      1B ->  7B        0.10913
      1B ->  8B       -0.11211
 
 Excited state symmetry could not be determined.
 Excited State  10:  3.089-?Sym   60.5192 eV   20.49 nm  f=0.0230  <S**2>=2.136
      1A ->  3A        0.21260
      1A ->  5A        0.74791
      1A ->  7A        0.18269
      1A ->  9A        0.56627
      1B ->  6B        0.11481
      1B ->  7B       -0.10288
 
 Excited state symmetry could not be determined.
 Excited State  11:  3.089-?Sym   60.5192 eV   20.49 nm  f=0.0230  <S**2>=2.136
      1A ->  3A       -0.52908
      1A ->  4A        0.55765
      1A ->  5A        0.12266
      1A ->  7A       -0.38189
      1A ->  8A       -0.44191
      1A ->  9A        0.11420
      1B ->  5B       -0.10857
      1B ->  6B        0.10629
      1B ->  8B        0.10582
 
 Excited state symmetry could not be determined.
 Excited State  12:  2.541-?Sym   61.6331 eV   20.12 nm  f=0.0537  <S**2>=1.364
      1A ->  3A        0.11819
      1A ->  5A        0.13585
      1B ->  3B        0.68426
      1B ->  4B       -0.12277
      1B ->  6B       -0.26099
      1B ->  7B        0.62087
      1B ->  8B        0.14295
 SavETr:  write IOETrn=   770 NScale= 10 NData=  16 NLR=1 NState=   12 LETran=     226.
 Leave Link  914 at Wed Oct 28 10:10:23 2015, MaxMem=    33554432 cpu:               0.1 elap:               0.1
 (Enter /home/gauss/gdvi03p/gdv/l601.exe)
 Copying SCF densities to generalized density rwf, IOpCl= 1 IROHF=0.

 **********************************************************************

            Population analysis using the SCF density.

 **********************************************************************

 Alpha  occ. eigenvalues --   -2.47748  -0.19576
 Alpha virt. eigenvalues --    0.03733   0.03733   0.03733   0.19670   0.20584
 Alpha virt. eigenvalues --    0.20584   0.20584
  Beta  occ. eigenvalues --   -2.46108
  Beta virt. eigenvalues --    0.03219   0.07153   0.07153   0.07153   0.23322
  Beta virt. eigenvalues --    0.23322   0.23322   0.23715
          Condensed to atoms (all electrons):
               1
     1  Li   3.000000
          Atomic-Atomic Spin Densities.
               1
     1  Li   1.000000
 Mulliken charges and spin densities:
               1          2
     1  Li   0.000000   1.000000
 Sum of Mulliken charges =   0.00000   1.00000
 Mulliken charges and spin densities with hydrogens summed into heavy atoms:
               1          2
     1  Li   0.000000   1.000000
 Electronic spatial extent (au):  <R**2>=             17.5033
 Charge=              0.0000 electrons
 Dipole moment (field-independent basis, Debye):
    X=              0.0000    Y=              0.0000    Z=              0.0000  Tot=              0.0000
 Quadrupole moment (field-independent basis, Debye-Ang):
   XX=             -7.8475   YY=             -7.8475   ZZ=             -7.8475
   XY=              0.0000   XZ=              0.0000   YZ=              0.0000
 Traceless Quadrupole moment (field-independent basis, Debye-Ang):
   XX=              0.0000   YY=              0.0000   ZZ=              0.0000
   XY=              0.0000   XZ=              0.0000   YZ=              0.0000
 Octapole moment (field-independent basis, Debye-Ang**2):
  XXX=              0.0000  YYY=              0.0000  ZZZ=              0.0000  XYY=              0.0000
  XXY=              0.0000  XXZ=              0.0000  XZZ=              0.0000  YZZ=              0.0000
  YYZ=              0.0000  XYZ=              0.0000
 Hexadecapole moment (field-independent basis, Debye-Ang**3):
 XXXX=            -35.3951 YYYY=            -35.3951 ZZZZ=            -35.3951 XXXY=              0.0000
 XXXZ=              0.0000 YYYX=              0.0000 YYYZ=              0.0000 ZZZX=              0.0000
 ZZZY=              0.0000 XXYY=            -11.7984 XXZZ=            -11.7984 YYZZ=            -11.7984
 XXYZ=              0.0000 YYXZ=              0.0000 ZZXY=              0.0000
 N-N= 0.000000000000D+00 E-N=-1.718157286711D+01  KE= 7.453422379812D+00
 Leave Link  601 at Wed Oct 28 10:10:23 2015, MaxMem=    33554432 cpu:               0.0 elap:               0.0
 (Enter /home/gauss/gdvi03p/gdv/l9999.exe)
 Unable to Open any file for archive entry.
 1\1\GINC-MEDUSA\SP\UCIS-Full\6-31G\Li1(2)\PLESTRAN\28-Oct-2015\0\\#p u
 hf/6-31G nosymm cis(full,nstates=12)\\Li 6-31G\\0,2\Li,0,0.,0.,0.\\Ver
 sion=ES64L-GDVRevI.03+\HF=-7.4312358\MP2=-7.4315201\PUHF=-7.4312364\PM
 P2-0=-7.4315202\EFC=0.\S2=0.750001\S2-1=0.75\S2A=0.75\RMSD=9.736e-09\P
 G=OH [O(Li1)]\\@
 The archive entry for this job was punched.


 ... IT IS NO ONE DREAME THAT
     CAN PLEASE THESE ALL ...

                -- BEN JONSON
 Job cpu time:       0 days  0 hours  0 minutes  0.9 seconds.
 Elapsed time:       0 days  0 hours  0 minutes  0.7 seconds.
 File lengths (MBytes):  RWF=     12 Int=      0 D2E=      0 Chk=      1 Scr=      1
 Normal termination of Gaussian DV at Wed Oct 28 10:10:23 2015.
