 Entering Gaussian System, Link 0=gdv
 Input=Li_cc-pVDZ_CIS.com
 Output=Li_cc-pVDZ_CIS.log
 Initial command:
 /home/gauss/gdvi01p/gdv/l1.exe "/home/GauScr/Gau-16983.inp" -scrdir="/home/GauScr/"
 Entering Link 1 = /home/gauss/gdvi01p/gdv/l1.exe PID=     16984.
  
 Copyright (c) 1988,1990,1992,1993,1995,1998,2003,2009,2014,
            Gaussian, Inc.  All Rights Reserved.
  
 This is the private, development version of
 the Gaussian(R) DV system of programs. It is based on
 the Gaussian(R) 09 system (copyright 2009, Gaussian, Inc.),
 the Gaussian(R) 03 system (copyright 2003, Gaussian, Inc.),
 the Gaussian(R) 98 system (copyright 1998, Gaussian, Inc.),
 the Gaussian(R) 94 system (copyright 1995, Gaussian, Inc.),
 the Gaussian 92(TM) system (copyright 1992, Gaussian, Inc.),
 the Gaussian 90(TM) system (copyright 1990, Gaussian, Inc.),
 the Gaussian 88(TM) system (copyright 1988, Gaussian, Inc.),
 the Gaussian 86(TM) system (copyright 1986, Carnegie Mellon
 University), and the Gaussian 82(TM) system (copyright 1983,
 Carnegie Mellon University). Gaussian is a federally registered
 trademark of Gaussian, Inc.
  
 This software contains proprietary and confidential information,
 including trade secrets, belonging to Gaussian, Inc.
  
 This software is provided under written license and may be
 used, copied, transmitted, or stored only in accord with that
 written license.
  
 The following legend is applicable only to US Government
 contracts under FAR:
  
                    RESTRICTED RIGHTS LEGEND
  
 Use, reproduction and disclosure by the US Government is
 subject to restrictions as set forth in subparagraphs (a)
 and (c) of the Commercial Computer Software - Restricted
 Rights clause in FAR 52.227-19.
  
 Gaussian, Inc.
 340 Quinnipiac St., Bldg. 40, Wallingford CT 06492
  
  
 ---------------------------------------------------------------
 Warning -- This program may not be used in any manner that
 competes with the business of Gaussian, Inc. or will provide
 assistance to any competitor of Gaussian, Inc.  The licensee
 of this program is prohibited from giving any competitor of
 Gaussian, Inc. access to this program.  By using this program,
 the user acknowledges that Gaussian, Inc. is engaged in the
 business of creating and licensing software in the field of
 computational chemistry and represents and warrants to the
 licensee that it is not a competitor of Gaussian, Inc. and that
 it will not use this program in any manner prohibited above.
 ---------------------------------------------------------------
  

 Cite this work as:
 Gaussian Development Version, Revision I.01+,
 M. J. Frisch, G. W. Trucks, H. B. Schlegel, G. E. Scuseria, 
 M. A. Robb, J. R. Cheeseman, G. Scalmani, V. Barone, B. Mennucci, 
 G. A. Petersson, H. Nakatsuji, M. Caricato, X. Li, H. P. Hratchian, 
 A. F. Izmaylov, J. Bloino, B. G. Janesko, F. Lipparini, G. Zheng, 
 J. L. Sonnenberg, W. Liang, M. Hada, M. Ehara, K. Toyota, R. Fukuda, 
 J. Hasegawa, M. Ishida, T. Nakajima, Y. Honda, O. Kitao, H. Nakai, 
 T. Vreven, J. A. Montgomery, Jr., J. E. Peralta, F. Ogliaro, 
 M. Bearpark, J. J. Heyd, E. Brothers, K. N. Kudin, V. N. Staroverov, 
 T. Keith, R. Kobayashi, J. Normand, K. Raghavachari, A. Rendell, 
 J. C. Burant, S. S. Iyengar, J. Tomasi, M. Cossi, N. Rega, 
 J. M. Millam, M. Klene, J. E. Knox, J. B. Cross, V. Bakken, 
 C. Adamo, J. Jaramillo, R. Gomperts, R. E. Stratmann, O. Yazyev, 
 A. J. Austin, R. Cammi, C. Pomelli, J. W. Ochterski, R. L. Martin, 
 K. Morokuma, V. G. Zakrzewski, G. A. Voth, P. Salvador, 
 J. J. Dannenberg, S. Dapprich, P. V. Parandekar, N. J. Mayhall, 
 A. D. Daniels, O. Farkas, J. B. Foresman, J. V. Ortiz, 
 J. Cioslowski, and D. J. Fox, Gaussian, Inc., Wallingford CT, 2010.
 
 *******************************************
 Gaussian DV:  ES64L-GDVRevI.01+ 11-Sep-2014
                 22-Sep-2015 
 *******************************************
 ------------------------------------------------
 #p uhf/cc-pVDZ nosymm cis(full,nstates=12,50-50)
 ------------------------------------------------
 1/38=1,172=1/1;
 2/12=2,15=1,17=6,18=5,40=1/2;
 3/5=16,11=2,25=1,30=1,116=2/1,2,8,3;
 4//1;
 5/5=2,38=5/2;
 8/6=1,10=90,108=12/1,4;
 9/41=12,42=3,48=2/14;
 6/7=2,8=2,9=2,10=2/1;
 99/5=1,9=1/99;
 Leave Link    1 at Tue Sep 22 14:54:33 2015, MaxMem=           0 cpu:               0.0 elap:               0.0
 (Enter /home/gauss/gdvi01p/gdv/l101.exe)
 ----------
 Li cc-pVDZ
 ----------
 Symbolic Z-matrix:
 Charge =  0 Multiplicity = 2
 Li                    0.        0.        0. 
 
 ITRead=  0
 MicOpt= -1
 NAtoms=      1 NQM=        1 NQMF=       0 NMMI=      0 NMMIF=      0
                NMic=       0 NMicF=      0.
                    Isotopes and Nuclear Properties:
 (Nuclear quadrupole moments (NQMom) in fm**2, nuclear magnetic moments (NMagM)
  in nuclear magnetons)

  Atom         1
 IAtWgt=           7
 AtmWgt=   7.0160045
 NucSpn=           3
 AtZEff=   0.0000000
 NQMom=   -4.0100000
 NMagM=    3.2564240
 AtZNuc=   3.0000000
 Leave Link  101 at Tue Sep 22 14:54:33 2015, MaxMem=    33554432 cpu:               0.1 elap:               0.1
 (Enter /home/gauss/gdvi01p/gdv/l202.exe)
                          Input orientation:                          
 ---------------------------------------------------------------------
 Center     Atomic      Atomic             Coordinates (Angstroms)
 Number     Number       Type             X           Y           Z
 ---------------------------------------------------------------------
      1          3           0        0.000000    0.000000    0.000000
 ---------------------------------------------------------------------
 Symmetry turned off by external request.
 Stoichiometry    Li(2)
 Framework group  OH[O(Li)]
 Deg. of freedom     0
 Full point group                 OH      NOp  48
 Leave Link  202 at Tue Sep 22 14:54:33 2015, MaxMem=    33554432 cpu:               0.0 elap:               0.0
 (Enter /home/gauss/gdvi01p/gdv/l301.exe)
 Standard basis: CC-pVDZ (5D, 7F)
 Ernie: Thresh=  0.10000D-02 Tol=  0.10000D-05 Strict=F.
 Ernie:  3 primitive shells out of 22 were deleted.
    14 basis functions,    32 primitive gaussians,    15 cartesian basis functions
     2 alpha electrons        1 beta electrons
       nuclear repulsion energy         0.0000000000 Hartrees.
 IExCor=    0 DFT=F Ex=HF Corr=None ExCW=0 ScaHFX=  1.000000
 ScaDFX=  1.000000  1.000000  1.000000  1.000000 ScalE2=  1.000000  1.000000
 IRadAn=      0 IRanWt=     -1 IRanGd=            0 ICorTp=0 IEmpDi=  4
 NAtoms=    1 NActive=    1 NUniq=    1 SFac= 1.00D+00 NAtFMM=   60 NAOKFM=F Big=F
 Integral buffers will be    131072 words long.
 Raffenetti 2 integral format.
 Two-electron integral symmetry is turned off.
 Leave Link  301 at Tue Sep 22 14:54:34 2015, MaxMem=    33554432 cpu:               0.0 elap:               0.1
 (Enter /home/gauss/gdvi01p/gdv/l302.exe)
 NPDir=0 NMtPBC=     1 NCelOv=     1 NCel=       1 NClECP=     1 NCelD=      1
         NCelK=      1 NCelE2=     1 NClLst=     1 CellRange=     0.0.
 One-electron integrals computed using PRISM.
 One-electron integral symmetry used in STVInt
 NBasis=    14 RedAO= T EigKep=  1.38D-01  NBF=    14
 NBsUse=    14 1.00D-06 EigRej= -1.00D+00 NBFU=    14
 Leave Link  302 at Tue Sep 22 14:54:34 2015, MaxMem=    33554432 cpu:               0.1 elap:               0.1
 (Enter /home/gauss/gdvi01p/gdv/l308.exe)
 Leave Link  308 at Tue Sep 22 14:54:34 2015, MaxMem=    33554432 cpu:               0.0 elap:               0.0
 (Enter /home/gauss/gdvi01p/gdv/l303.exe)
 DipDrv:  MaxL=1.
 Leave Link  303 at Tue Sep 22 14:54:34 2015, MaxMem=    33554432 cpu:               0.0 elap:               0.0
 (Enter /home/gauss/gdvi01p/gdv/l401.exe)
 ExpMin= 2.40D-02 ExpMax= 1.47D+03 ExpMxC= 5.03D+01 IAcc=3 IRadAn=         5 AccDes= 0.00D+00
 Harris functional with IExCor=  205 and IRadAn=       5 diagonalized for initial guess.
 HarFok:  IExCor=  205 AccDes= 0.00D+00 IRadAn=         5 IDoV= 1 UseB2=F ITyADJ=14
 ICtDFT=  3500011 ScaDFX=  1.000000  1.000000  1.000000  1.000000
 FoFCou: FMM=F IPFlag=           0 FMFlag=      100000 FMFlg1=           0
         NFxFlg=           0 DoJE=T BraDBF=F KetDBF=T FulRan=T
         wScrn=  0.000000 ICntrl=       500 IOpCl=  0 I1Cent=   200000004 NGrid=           0
         NMat0=    1 NMatS0=      1 NMatT0=    0 NMatD0=    1 NMtDS0=    0 NMtDT0=    0
 Symmetry not used in FoFCou.
 Harris En= -7.38581788230173    
 JPrj=0 DoOrth=F DoCkMO=F.
 Initial guess <Sx>= 0.0000 <Sy>= 0.0000 <Sz>= 0.5000 <S**2>= 0.7500 S= 0.5000
 Leave Link  401 at Tue Sep 22 14:54:34 2015, MaxMem=    33554432 cpu:               0.1 elap:               0.1
 (Enter /home/gauss/gdvi01p/gdv/l502.exe)
 Keep R1 and R2 ints in memory in canonical form, NReq=838315.
 FoFCou: FMM=F IPFlag=           0 FMFlag=           0 FMFlg1=           0
         NFxFlg=           0 DoJE=F BraDBF=F KetDBF=F FulRan=T
         wScrn=  0.000000 ICntrl=       600 IOpCl=  0 I1Cent=           0 NGrid=           0
         NMat0=    1 NMatS0=    105 NMatT0=    0 NMatD0=    1 NMtDS0=    0 NMtDT0=    0
 Symmetry not used in FoFCou.
 Two-electron integral symmetry not used.
 UHF open shell SCF:
 Using DIIS extrapolation, IDIIS=  1040.
 NGot=    33554432 LenX=    33541998 LenY=    33541116
 Requested convergence on RMS density matrix=1.00D-08 within 128 cycles.
 Requested convergence on MAX density matrix=1.00D-06.
 Requested convergence on             energy=1.00D-06.
 No special actions if energy rises.

 Cycle   1  Pass 1  IDiag  1:
 E= -7.43131607714881    
 DIIS: error= 1.60D-02 at cycle   1 NSaved=   1.
 NSaved= 1 IEnMin= 1 EnMin= -7.43131607714881     IErMin= 1 ErrMin= 1.60D-02
 ErrMax= 1.60D-02  0.00D+00 EMaxC= 1.00D-01 BMatC= 4.79D-03 BMatP= 4.79D-03
 IDIUse=3 WtCom= 8.40D-01 WtEn= 1.60D-01
 Coeff-Com:  0.100D+01
 Coeff-En:   0.100D+01
 Coeff:      0.100D+01
 Gap=     0.232 Goal=   None    Shift=    0.000
 Gap=     2.509 Goal=   None    Shift=    0.000
 GapD=    0.232 DampG=1.000 DampE=0.500 DampFc=0.5000 IDamp=-1.
 Damping current iteration by 5.00D-01
 RMSDP=3.37D-03 MaxDP=2.35D-02              OVMax= 1.55D-02

 Cycle   2  Pass 1  IDiag  1:
 E= -7.43182293105801     Delta-E=       -0.000506853909 Rises=F Damp=T
 DIIS: error= 9.15D-03 at cycle   2 NSaved=   2.
 NSaved= 2 IEnMin= 2 EnMin= -7.43182293105801     IErMin= 2 ErrMin= 9.15D-03
 ErrMax= 9.15D-03  0.00D+00 EMaxC= 1.00D-01 BMatC= 1.50D-03 BMatP= 4.79D-03
 IDIUse=3 WtCom= 9.09D-01 WtEn= 9.15D-02
 Coeff-Com: -0.126D+01 0.226D+01
 Coeff-En:   0.000D+00 0.100D+01
 Coeff:     -0.115D+01 0.215D+01
 Gap=     0.220 Goal=   None    Shift=    0.000
 Gap=     2.494 Goal=   None    Shift=    0.000
 RMSDP=2.42D-03 MaxDP=2.18D-02 DE=-5.07D-04 OVMax= 5.06D-03

 Cycle   3  Pass 1  IDiag  1:
 E= -7.43241815355524     Delta-E=       -0.000595222497 Rises=F Damp=F
 DIIS: error= 3.12D-04 at cycle   3 NSaved=   3.
 NSaved= 3 IEnMin= 3 EnMin= -7.43241815355524     IErMin= 3 ErrMin= 3.12D-04
 ErrMax= 3.12D-04  0.00D+00 EMaxC= 1.00D-01 BMatC= 1.19D-06 BMatP= 1.50D-03
 IDIUse=3 WtCom= 9.97D-01 WtEn= 3.12D-03
 Coeff-Com:  0.389D+00-0.714D+00 0.133D+01
 Coeff-En:   0.000D+00 0.000D+00 0.100D+01
 Coeff:      0.388D+00-0.712D+00 0.132D+01
 Gap=     0.221 Goal=   None    Shift=    0.000
 Gap=     2.493 Goal=   None    Shift=    0.000
 RMSDP=3.65D-04 MaxDP=5.01D-03 DE=-5.95D-04 OVMax= 2.51D-03

 Cycle   4  Pass 1  IDiag  1:
 E= -7.43242033782202     Delta-E=       -0.000002184267 Rises=F Damp=F
 DIIS: error= 8.72D-05 at cycle   4 NSaved=   4.
 NSaved= 4 IEnMin= 4 EnMin= -7.43242033782202     IErMin= 4 ErrMin= 8.72D-05
 ErrMax= 8.72D-05  0.00D+00 EMaxC= 1.00D-01 BMatC= 7.20D-08 BMatP= 1.19D-06
 IDIUse=1 WtCom= 1.00D+00 WtEn= 0.00D+00
 Coeff-Com: -0.173D+00 0.320D+00-0.793D+00 0.165D+01
 Coeff:     -0.173D+00 0.320D+00-0.793D+00 0.165D+01
 Gap=     0.221 Goal=   None    Shift=    0.000
 Gap=     2.493 Goal=   None    Shift=    0.000
 RMSDP=1.47D-04 MaxDP=2.03D-03 DE=-2.18D-06 OVMax= 1.01D-03

 Cycle   5  Pass 1  IDiag  1:
 E= -7.43242052760018     Delta-E=       -0.000000189778 Rises=F Damp=F
 DIIS: error= 4.05D-07 at cycle   5 NSaved=   5.
 NSaved= 5 IEnMin= 5 EnMin= -7.43242052760018     IErMin= 5 ErrMin= 4.05D-07
 ErrMax= 4.05D-07  0.00D+00 EMaxC= 1.00D-01 BMatC= 2.30D-12 BMatP= 7.20D-08
 IDIUse=1 WtCom= 1.00D+00 WtEn= 0.00D+00
 Coeff-Com:  0.915D-02-0.170D-01 0.422D-01-0.881D-01 0.105D+01
 Coeff:      0.915D-02-0.170D-01 0.422D-01-0.881D-01 0.105D+01
 Gap=     0.221 Goal=   None    Shift=    0.000
 Gap=     2.493 Goal=   None    Shift=    0.000
 RMSDP=1.42D-07 MaxDP=1.61D-06 DE=-1.90D-07 OVMax= 8.04D-07

 Cycle   6  Pass 1  IDiag  1:
 E= -7.43242052760079     Delta-E=       -0.000000000001 Rises=F Damp=F
 DIIS: error= 1.52D-08 at cycle   6 NSaved=   6.
 NSaved= 6 IEnMin= 6 EnMin= -7.43242052760079     IErMin= 6 ErrMin= 1.52D-08
 ErrMax= 1.52D-08  0.00D+00 EMaxC= 1.00D-01 BMatC= 5.41D-15 BMatP= 2.30D-12
 IDIUse=1 WtCom= 1.00D+00 WtEn= 0.00D+00
 Coeff-Com: -0.370D-04 0.714D-04-0.186D-03 0.400D-03-0.164D-01 0.102D+01
 Coeff:     -0.370D-04 0.714D-04-0.186D-03 0.400D-03-0.164D-01 0.102D+01
 Gap=     0.221 Goal=   None    Shift=    0.000
 Gap=     2.493 Goal=   None    Shift=    0.000
 RMSDP=4.62D-09 MaxDP=3.57D-08 DE=-6.08D-13 OVMax= 1.87D-08

 SCF Done:  E(UHF) =  -7.43242052760     A.U. after    6 cycles
            NFock=  6  Conv=0.46D-08     -V/T= 2.0000
 <Sx>= 0.0000 <Sy>= 0.0000 <Sz>= 0.5000 <S**2>= 0.7500 S= 0.5000
 <L.S>= 0.000000000000E+00
 KE= 7.432387236679D+00 PE=-1.714587431017D+01 EE= 2.281066545891D+00
 Annihilation of the first spin contaminant:
 S**2 before annihilation     0.7500,   after     0.7500
 Leave Link  502 at Tue Sep 22 14:54:34 2015, MaxMem=    33554432 cpu:               0.1 elap:               0.1
 (Enter /home/gauss/gdvi01p/gdv/l801.exe)
 Range of M.O.s used for correlation:     1    14
 NBasis=    14 NAE=     2 NBE=     1 NFC=     0 NFV=     0
 NROrb=     14 NOA=     2 NOB=     1 NVA=    12 NVB=    13
 Leave Link  801 at Tue Sep 22 14:54:34 2015, MaxMem=    33554432 cpu:               0.0 elap:               0.0
 (Enter /home/gauss/gdvi01p/gdv/l804.exe)
 Open-shell transformation, MDV=    33554432 ITran=3 ISComp=1.
 Unit  1 TFree=         13965 TCopy=        150993.
 Semi-Direct transformation.
 ModeAB=           2 MOrb=             2 LenV=      33376246
 LASXX=          667 LTotXX=         667 LenRXX=        3360
 LTotAB=         651 MaxLAS=        3360 LenRXY=         651
 NonZer=        3948 LenScr=      785920 LnRSAI=           0
 LnScr1=           0 LExtra=           0 Total=       789931
 MaxDsk=          -1 SrtSym=           F ITran=            3
 DoSDTr:  NPSUse=  1
 JobTyp=1 Pass  1:  I=   1 to   2.
 (rs|ai) integrals will be sorted in core.
 Complete sort for first half transformation.
 First half transformation complete.
 Complete sort for second half transformation.
 Second half transformation complete.
 ModeAB=           2 MOrb=             1 LenV=      33376246
 LASXX=          169 LTotXX=         169 LenRXX=        1680
 LTotAB=          78 MaxLAS=        1680 LenRXY=          78
 NonZer=        1974 LenScr=      785920 LnRSAI=           0
 LnScr1=           0 LExtra=           0 Total=       787678
 MaxDsk=          -1 SrtSym=           F ITran=            3
 DoSDTr:  NPSUse=  1
 JobTyp=2 Pass  1:  I=   1 to   1.
 (rs|ai) integrals will be sorted in core.
 Complete sort for first half transformation.
 First half transformation complete.
 Complete sort for second half transformation.
 Second half transformation complete.
 Spin components of T(2) and E(2):
     alpha-alpha T2 =       0.2768587460D-05 E2=     -0.7925554625D-05
     alpha-beta  T2 =       0.5234391490D-04 E2=     -0.1851040350D-03
     beta-beta   T2 =       0.0000000000D+00 E2=      0.0000000000D+00
 ANorm=    0.1000027556D+01
 E2 =    -0.1930295896D-03 EUMP2 =    -0.74326135571904D+01
 (S**2,0)=  0.75000D+00           (S**2,1)=  0.75000D+00
 E(PUHF)=      -0.74324209571D+01        E(PMP2)=      -0.74326136326D+01
 Leave Link  804 at Tue Sep 22 14:54:34 2015, MaxMem=    33554432 cpu:               0.1 elap:               0.2
 (Enter /home/gauss/gdvi01p/gdv/l914.exe)
 UHF ground state
 Ignoring spin specification with unrestricted ground state.
 MDV=    33554432 DFT=F DoStab=F Mixed=F DoRPA=F DoScal=F NonHer=F
 Making orbital integer symmetry assigments:
 FoFJK:  IHMeth= 1 ICntrl=       0 DoSepK=F KAlg= 0 I1Cent=           0 FoldK=F
 IRaf=         0 NMat=       2 IRICut=       1 DoRegI=T DoRafI=F ISym2E= 0 IDoP0=0 IntGTp=1.
 FoFCou: FMM=F IPFlag=           0 FMFlag=      100000 FMFlg1=           0
         NFxFlg=           0 DoJE=F BraDBF=F KetDBF=F FulRan=T
         wScrn=  0.000000 ICntrl=         0 IOpCl=  1 I1Cent=           0 NGrid=           0
         NMat0=    2 NMatS0=      2 NMatT0=    0 NMatD0=    2 NMtDS0=    0 NMtDT0=    0
 Symmetry not used in FoFCou.
    37 initial guesses have been made.
 Convergence on wavefunction:    0.001000000000000
 Davidson Disk Diagonalization:  ConvIn= 1.00D-03 SkipCon=T Conv= 1.00D-03.
 Max sub-space:   200 roots to seek:    37 dimension of matrix:           37
 Iteration     1 Dimension    37 NMult     0 NNew     37
 New state      1 was old state      2
 New state      2 was old state      3
 New state      3 was old state      1
 New state      4 was old state      6
 New state      5 was old state      4
 New state      6 was old state      5
 New state      8 was old state     11
 New state      9 was old state     12
 New state     10 was old state      8
 New state     11 was old state     10
 New state     12 was old state      9
 Excitation Energies [eV] at current iteration:
 Root      1 :     1.844229822471434
 Root      2 :     1.844229822471452
 Root      3 :     1.844229822471489
 Root      4 :     4.773157435667689
 Root      5 :     4.773157435667695
 Root      6 :     4.773157435667707
 Root      7 :     5.041546053837712
 Root      8 :     8.976923498230120
 Root      9 :     8.976923498230120
 Root     10 :     8.976923498230150
 Root     11 :     8.976923498230162
 Root     12 :     8.976923498230235
 Root     13 :    59.514183186762630
 Root     14 :    60.435586694537430
 Root     15 :    60.435586694537520
 Root     16 :    60.435586694537520
 Root     17 :    61.574669430493400
 Root     18 :    61.574669430493420
 Root     19 :    61.574669430493460
 Root     20 :    65.353410792891450
 Root     21 :    65.473426223387920
 Root     22 :    65.473426223388000
 Root     23 :    65.473426223388030
 Root     24 :    65.734932425265670
 Root     25 :    65.734932425265750
 Root     26 :    65.734932425265780
 Root     27 :    66.025698147471940
 Root     28 :    68.970066047846980
 Root     29 :    68.970066047847000
 Root     30 :    68.970066047847060
 Root     31 :    68.970066047847060
 Root     32 :    68.970066047847060
 Root     33 :    69.264056982244710
 Root     34 :    69.264056982244720
 Root     35 :    69.264056982244750
 Root     36 :    69.264056982244800
 Root     37 :    69.264056982244810
 Convergence achieved for final wavefunctions.
 ***********************************************************************
 Excited states from <AA,BB:AA,BB> singles matrix:
 ***********************************************************************
 
 ExtSpn:  IState=     1 X2= 1.000 Y2= 0.000 X2-Y2-1= 4.44D-16
          S2Grnd=  0.750 Ra=  0.000 Rb=  0.000 T=  0.000 S2Ext=  0.000 S2=  0.750
 ExtSpn:  IState=     2 X2= 1.000 Y2= 0.000 X2-Y2-1=-7.77D-16
          S2Grnd=  0.750 Ra=  0.000 Rb=  0.000 T=  0.000 S2Ext=  0.000 S2=  0.750
 ExtSpn:  IState=     3 X2= 1.000 Y2= 0.000 X2-Y2-1=-1.11D-15
          S2Grnd=  0.750 Ra=  0.000 Rb=  0.000 T=  0.000 S2Ext=  0.000 S2=  0.750
 ExtSpn:  IState=     4 X2= 1.000 Y2= 0.000 X2-Y2-1=-1.55D-15
          S2Grnd=  0.750 Ra=  0.000 Rb=  0.000 T=  0.000 S2Ext=  0.000 S2=  0.750
 ExtSpn:  IState=     5 X2= 1.000 Y2= 0.000 X2-Y2-1=-3.33D-16
          S2Grnd=  0.750 Ra=  0.000 Rb=  0.000 T=  0.000 S2Ext=  0.000 S2=  0.750
 ExtSpn:  IState=     6 X2= 1.000 Y2= 0.000 X2-Y2-1=-1.11D-16
          S2Grnd=  0.750 Ra=  0.000 Rb=  0.000 T=  0.000 S2Ext=  0.000 S2=  0.750
 ExtSpn:  IState=     7 X2= 1.000 Y2= 0.000 X2-Y2-1=-8.88D-16
          S2Grnd=  0.750 Ra=  0.000 Rb=  0.000 T=  0.000 S2Ext=  0.000 S2=  0.750
 ExtSpn:  IState=     8 X2= 1.000 Y2= 0.000 X2-Y2-1= 0.00D+00
          S2Grnd=  0.750 Ra=  0.000 Rb=  0.000 T=  0.000 S2Ext=  0.000 S2=  0.750
 ExtSpn:  IState=     9 X2= 1.000 Y2= 0.000 X2-Y2-1=-1.11D-15
          S2Grnd=  0.750 Ra=  0.000 Rb=  0.000 T=  0.000 S2Ext=  0.000 S2=  0.750
 ExtSpn:  IState=    10 X2= 1.000 Y2= 0.000 X2-Y2-1=-1.89D-15
          S2Grnd=  0.750 Ra=  0.000 Rb=  0.000 T=  0.000 S2Ext=  0.000 S2=  0.750
 ExtSpn:  IState=    11 X2= 1.000 Y2= 0.000 X2-Y2-1=-1.67D-15
          S2Grnd=  0.750 Ra=  0.000 Rb=  0.000 T=  0.000 S2Ext=  0.000 S2=  0.750
 ExtSpn:  IState=    12 X2= 1.000 Y2= 0.000 X2-Y2-1= 0.00D+00
          S2Grnd=  0.750 Ra=  0.000 Rb=  0.000 T=  0.000 S2Ext=  0.000 S2=  0.750
 ExtSpn:  IState=    13 X2= 1.000 Y2= 0.000 X2-Y2-1= 2.00D-15
          S2Grnd=  0.750 Ra=  0.002 Rb=  0.051 T=  0.020 S2Ext=  0.073 S2=  0.823
 ExtSpn:  IState=    14 X2= 1.000 Y2= 0.000 X2-Y2-1= 1.55D-15
          S2Grnd=  0.750 Ra=  0.971 Rb=  0.029 T=  0.331 S2Ext=  1.331 S2=  2.081
 ExtSpn:  IState=    15 X2= 1.000 Y2= 0.000 X2-Y2-1=-4.44D-16
          S2Grnd=  0.750 Ra=  0.971 Rb=  0.029 T=  0.331 S2Ext=  1.331 S2=  2.081
 ExtSpn:  IState=    16 X2= 1.000 Y2= 0.000 X2-Y2-1=-3.33D-16
          S2Grnd=  0.750 Ra=  0.971 Rb=  0.029 T=  0.331 S2Ext=  1.331 S2=  2.081
 ExtSpn:  IState=    17 X2= 1.000 Y2= 0.000 X2-Y2-1= 2.00D-15
          S2Grnd=  0.750 Ra=  0.029 Rb=  0.971 T= -0.331 S2Ext=  0.669 S2=  1.419
 ExtSpn:  IState=    18 X2= 1.000 Y2= 0.000 X2-Y2-1= 4.44D-16
          S2Grnd=  0.750 Ra=  0.029 Rb=  0.971 T= -0.331 S2Ext=  0.669 S2=  1.419
 ExtSpn:  IState=    19 X2= 1.000 Y2= 0.000 X2-Y2-1=-4.44D-16
          S2Grnd=  0.750 Ra=  0.029 Rb=  0.971 T= -0.331 S2Ext=  0.669 S2=  1.419
 ExtSpn:  IState=    20 X2= 1.000 Y2= 0.000 X2-Y2-1=-4.44D-16
          S2Grnd=  0.750 Ra=  0.978 Rb=  0.017 T=  0.255 S2Ext=  1.249 S2=  1.999
 ExtSpn:  IState=    21 X2= 1.000 Y2= 0.000 X2-Y2-1= 8.88D-16
          S2Grnd=  0.750 Ra=  0.060 Rb=  0.940 T=  0.473 S2Ext=  1.473 S2=  2.223
 ExtSpn:  IState=    22 X2= 1.000 Y2= 0.000 X2-Y2-1=-5.55D-16
          S2Grnd=  0.750 Ra=  0.060 Rb=  0.940 T=  0.473 S2Ext=  1.473 S2=  2.223
 ExtSpn:  IState=    23 X2= 1.000 Y2= 0.000 X2-Y2-1= 6.66D-16
          S2Grnd=  0.750 Ra=  0.060 Rb=  0.940 T=  0.473 S2Ext=  1.473 S2=  2.223
 ExtSpn:  IState=    24 X2= 1.000 Y2= 0.000 X2-Y2-1= 2.22D-16
          S2Grnd=  0.750 Ra=  0.940 Rb=  0.060 T= -0.473 S2Ext=  0.527 S2=  1.277
 ExtSpn:  IState=    25 X2= 1.000 Y2= 0.000 X2-Y2-1= 4.44D-16
          S2Grnd=  0.750 Ra=  0.940 Rb=  0.060 T= -0.473 S2Ext=  0.527 S2=  1.277
 ExtSpn:  IState=    26 X2= 1.000 Y2= 0.000 X2-Y2-1= 1.33D-15
          S2Grnd=  0.750 Ra=  0.940 Rb=  0.060 T= -0.473 S2Ext=  0.527 S2=  1.277
 ExtSpn:  IState=    27 X2= 1.000 Y2= 0.000 X2-Y2-1=-6.66D-16
          S2Grnd=  0.750 Ra=  0.020 Rb=  0.932 T= -0.275 S2Ext=  0.678 S2=  1.428
 ExtSpn:  IState=    28 X2= 1.000 Y2= 0.000 X2-Y2-1= 2.00D-15
          S2Grnd=  0.750 Ra=  0.999 Rb=  0.001 T=  0.060 S2Ext=  1.060 S2=  1.810
 ExtSpn:  IState=    29 X2= 1.000 Y2= 0.000 X2-Y2-1=-2.11D-15
          S2Grnd=  0.750 Ra=  0.999 Rb=  0.001 T=  0.060 S2Ext=  1.060 S2=  1.810
 ExtSpn:  IState=    30 X2= 1.000 Y2= 0.000 X2-Y2-1= 4.44D-16
          S2Grnd=  0.750 Ra=  0.999 Rb=  0.001 T=  0.060 S2Ext=  1.060 S2=  1.810
 ExtSpn:  IState=    31 X2= 1.000 Y2= 0.000 X2-Y2-1=-4.44D-16
          S2Grnd=  0.750 Ra=  0.999 Rb=  0.001 T=  0.060 S2Ext=  1.060 S2=  1.810
 ExtSpn:  IState=    32 X2= 1.000 Y2= 0.000 X2-Y2-1=-6.66D-16
          S2Grnd=  0.750 Ra=  0.999 Rb=  0.001 T=  0.060 S2Ext=  1.060 S2=  1.810
 ExtSpn:  IState=    33 X2= 1.000 Y2= 0.000 X2-Y2-1= 2.22D-16
          S2Grnd=  0.750 Ra=  0.001 Rb=  0.999 T= -0.060 S2Ext=  0.940 S2=  1.690
 ExtSpn:  IState=    34 X2= 1.000 Y2= 0.000 X2-Y2-1= 2.22D-16
          S2Grnd=  0.750 Ra=  0.001 Rb=  0.999 T= -0.060 S2Ext=  0.940 S2=  1.690
 ExtSpn:  IState=    35 X2= 1.000 Y2= 0.000 X2-Y2-1=-6.66D-16
          S2Grnd=  0.750 Ra=  0.001 Rb=  0.999 T= -0.060 S2Ext=  0.940 S2=  1.690
 ExtSpn:  IState=    36 X2= 1.000 Y2= 0.000 X2-Y2-1= 2.22D-16
          S2Grnd=  0.750 Ra=  0.001 Rb=  0.999 T= -0.060 S2Ext=  0.940 S2=  1.690
 ExtSpn:  IState=    37 X2= 1.000 Y2= 0.000 X2-Y2-1=-4.44D-16
          S2Grnd=  0.750 Ra=  0.001 Rb=  0.999 T= -0.060 S2Ext=  0.940 S2=  1.690
 1PDM for each excited state written to RWF  633
 Ground to excited state transition densities written to RWF  633
 Ground to excited state transition electric dipole moments (Au):
       state          X           Y           Z        Dip. S.      Osc.
         1         0.4212     -2.3328      0.1525      5.6425      0.2549
         2        -1.6591     -0.1891      1.6894      5.6425      0.2549
         3         1.6470      0.4060      1.6629      5.6425      0.2549
         4         0.1394      0.0916      0.2870      0.1102      0.0129
         5         0.2918      0.0377     -0.1538      0.1102      0.0129
         6         0.0750     -0.3168      0.0647      0.1102      0.0129
         7         0.0000      0.0000      0.0000      0.0000      0.0000
         8         0.0000      0.0000      0.0000      0.0000      0.0000
         9         0.0000      0.0000      0.0000      0.0000      0.0000
        10         0.0000      0.0000      0.0000      0.0000      0.0000
        11         0.0000      0.0000      0.0000      0.0000      0.0000
        12         0.0000      0.0000      0.0000      0.0000      0.0000
 Ground to excited state transition velocity dipole moments (Au):
       state          X           Y           Z        Dip. S.      Osc.
         1        -0.0287      0.1591     -0.0104      0.0263      0.2582
         2         0.1132      0.0129     -0.1152      0.0263      0.2582
         3        -0.1123     -0.0277     -0.1134      0.0263      0.2582
         4        -0.0310     -0.0204     -0.0638      0.0054      0.0207
         5        -0.0648     -0.0084      0.0342      0.0054      0.0207
         6        -0.0167      0.0704     -0.0144      0.0054      0.0207
         7         0.0000      0.0000      0.0000      0.0000      0.0000
         8         0.0000      0.0000      0.0000      0.0000      0.0000
         9         0.0000      0.0000      0.0000      0.0000      0.0000
        10         0.0000      0.0000      0.0000      0.0000      0.0000
        11         0.0000      0.0000      0.0000      0.0000      0.0000
        12         0.0000      0.0000      0.0000      0.0000      0.0000
 Ground to excited state transition magnetic dipole moments (Au):
       state          X           Y           Z
         1         0.0000      0.0000      0.0000
         2         0.0000      0.0000      0.0000
         3         0.0000      0.0000      0.0000
         4         0.0000      0.0000      0.0000
         5         0.0000      0.0000      0.0000
         6         0.0000      0.0000      0.0000
         7         0.0000      0.0000      0.0000
         8         0.0000      0.0000      0.0000
         9         0.0000      0.0000      0.0000
        10         0.0000      0.0000      0.0000
        11         0.0000      0.0000      0.0000
        12         0.0000      0.0000      0.0000
 Ground to excited state transition velocity quadrupole moments (Au):
       state          XX          YY          ZZ          XY          XZ          YZ
         1         0.0000      0.0000      0.0000      0.0000      0.0000      0.0000
         2         0.0000      0.0000      0.0000      0.0000      0.0000      0.0000
         3         0.0000      0.0000      0.0000      0.0000      0.0000      0.0000
         4         0.0000      0.0000      0.0000      0.0000      0.0000      0.0000
         5         0.0000      0.0000      0.0000      0.0000      0.0000      0.0000
         6         0.0000      0.0000      0.0000      0.0000      0.0000      0.0000
         7         0.7483      0.7483      0.7483      0.0000      0.0000      0.0000
         8        -0.4396      0.0101      0.4295      0.4195     -0.0389     -0.2606
         9        -0.2066     -0.0031      0.2097      0.0979      0.4335      0.4398
        10         0.0779      0.0819     -0.1598     -0.0863      0.4911     -0.4081
        11         0.5436     -0.2727     -0.2708      0.4567      0.0496      0.0407
        12         0.2039     -0.7056      0.5017     -0.1810      0.0354     -0.0688
 <0|del|b> * <b|rxdel|0> + <0|del|b> * <b|delr+rdel|0>
 Rotatory Strengths (R) in cgs (10**-40 erg-esu-cm/Gauss)
       state          XX          YY          ZZ    R(velocity)    E-M Angle
         1         0.0000      0.0000      0.0000      0.0000       90.00
         2         0.0000      0.0000      0.0000      0.0000       90.00
         3         0.0000      0.0000      0.0000      0.0000       90.00
         4         0.0000      0.0000      0.0000      0.0000       90.00
         5         0.0000      0.0000      0.0000      0.0000       90.00
         6         0.0000      0.0000      0.0000      0.0000       90.00
         7         0.0000      0.0000      0.0000      0.0000       90.00
         8         0.0000      0.0000      0.0000      0.0000       90.00
         9         0.0000      0.0000      0.0000      0.0000       90.00
        10         0.0000      0.0000      0.0000      0.0000       90.00
        11         0.0000      0.0000      0.0000      0.0000       90.00
        12         0.0000      0.0000      0.0000      0.0000       90.00
 1/2[<0|r|b>*<b|rxdel|0> + (<0|rxdel|b>*<b|r|0>)*]
 Rotatory Strengths (R) in cgs (10**-40 erg-esu-cm/Gauss)
       state          XX          YY          ZZ     R(length)
         1         0.0000      0.0000      0.0000      0.0000
         2         0.0000      0.0000      0.0000      0.0000
         3         0.0000      0.0000      0.0000      0.0000
         4         0.0000      0.0000      0.0000      0.0000
         5         0.0000      0.0000      0.0000      0.0000
         6         0.0000      0.0000      0.0000      0.0000
         7         0.0000      0.0000      0.0000      0.0000
         8         0.0000      0.0000      0.0000      0.0000
         9         0.0000      0.0000      0.0000      0.0000
        10         0.0000      0.0000      0.0000      0.0000
        11         0.0000      0.0000      0.0000      0.0000
        12         0.0000      0.0000      0.0000      0.0000
  1/2[<0|del|b>*<b|r|0> + (<0|r|b>*<b|del|0>)*] (Au)
       state          X           Y           Z        Dip. S.   Osc.(frdel)
         1        -0.0121     -0.3712     -0.0016      0.3849      0.2566
         2        -0.1878     -0.0024     -0.1947      0.3849      0.2566
         3        -0.1850     -0.0112     -0.1886      0.3849      0.2566
         4        -0.0043     -0.0019     -0.0183      0.0245      0.0163
         5        -0.0189     -0.0003     -0.0053      0.0245      0.0163
         6        -0.0013     -0.0223     -0.0009      0.0245      0.0163
         7         0.0000      0.0000      0.0000      0.0000      0.0000
         8         0.0000      0.0000      0.0000      0.0000      0.0000
         9         0.0000      0.0000      0.0000      0.0000      0.0000
        10         0.0000      0.0000      0.0000      0.0000      0.0000
        11         0.0000      0.0000      0.0000      0.0000      0.0000
        12         0.0000      0.0000      0.0000      0.0000      0.0000

 Excitation energies and oscillator strengths:
 
 Excited state symmetry could not be determined.
 Excited State   1:  2.000-?Sym    1.8442 eV  672.28 nm  f=0.2549  <S**2>=0.750
      2A ->  3A       -0.13158
      2A ->  4A        0.90288
      2A ->  5A        0.28056
      2A ->  7A       -0.13331
      2A ->  8A        0.20813
      2A ->  9A       -0.16632
 This state for optimization and/or second-order correction.
 Total Energy, E(CIS) =  -7.36464632867    
 Copying the excited state density for this state as the 1-particle RhoCI density.
 
 Excited state symmetry could not be determined.
 Excited State   2:  2.000-?Sym    1.8442 eV  672.28 nm  f=0.2549  <S**2>=0.750
      2A ->  3A        0.94546
      2A ->  4A        0.12666
      2A ->  7A       -0.20500
      2A ->  9A        0.21268
 
 Excited state symmetry could not be determined.
 Excited State   3:  2.000-?Sym    1.8442 eV  672.28 nm  f=0.2549  <S**2>=0.750
      2A ->  4A        0.28281
      2A ->  5A       -0.91171
      2A ->  7A       -0.17016
      2A ->  8A       -0.20962
      2A ->  9A       -0.12592
 
 Excited state symmetry could not be determined.
 Excited State   4:  2.000-?Sym    4.7732 eV  259.75 nm  f=0.0129  <S**2>=0.750
      2A ->  5A       -0.27752
      2A ->  7A        0.65096
      2A ->  8A        0.69079
      2A ->  9A        0.10131
 
 Excited state symmetry could not be determined.
 Excited State   5:  2.000-?Sym    4.7732 eV  259.75 nm  f=0.0129  <S**2>=0.750
      2A ->  3A       -0.28196
      2A ->  7A       -0.45325
      2A ->  8A        0.31276
      2A ->  9A        0.77971
 
 Excited state symmetry could not be determined.
 Excited State   6:  2.000-?Sym    4.7732 eV  259.75 nm  f=0.0129  <S**2>=0.750
      2A ->  4A        0.29268
      2A ->  7A        0.53105
      2A ->  8A       -0.57982
      2A ->  9A        0.54129
 
 Excited state symmetry could not be determined.
 Excited State   7:  2.000-?Sym    5.0415 eV  245.92 nm  f=0.0000  <S**2>=0.750
      2A ->  6A        1.00000
 
 Excited state symmetry could not be determined.
 Excited State   8:  2.000-?Sym    8.9769 eV  138.11 nm  f=0.0000  <S**2>=0.750
      2A -> 10A       -0.77420
      2A -> 11A       -0.59887
      2A -> 12A        0.18165
 
 Excited state symmetry could not be determined.
 Excited State   9:  2.000-?Sym    8.9769 eV  138.11 nm  f=0.0000  <S**2>=0.750
      2A -> 10A       -0.52255
      2A -> 11A        0.70326
      2A -> 12A        0.18873
      2A -> 13A        0.37907
      2A -> 14A        0.23034
 
 Excited state symmetry could not be determined.
 Excited State  10:  2.000-?Sym    8.9769 eV  138.11 nm  f=0.0000  <S**2>=0.750
      2A -> 10A        0.23430
      2A -> 12A        0.95997
      2A -> 13A       -0.15144
 
 Excited state symmetry could not be determined.
 Excited State  11:  2.000-?Sym    8.9769 eV  138.11 nm  f=0.0000  <S**2>=0.750
      2A -> 10A        0.20802
      2A -> 11A       -0.35907
      2A -> 13A        0.90493
 
 Excited state symmetry could not be determined.
 Excited State  12:  2.000-?Sym    8.9769 eV  138.11 nm  f=0.0000  <S**2>=0.750
      2A -> 10A        0.17142
      2A -> 11A       -0.13348
      2A -> 14A        0.97138
 SavETr:  write IOETrn=   770 NScale= 10 NData=  16 NLR=1 NState=   37 LETran=     676.
 Leave Link  914 at Tue Sep 22 14:54:34 2015, MaxMem=    33554432 cpu:               0.1 elap:               0.1
 (Enter /home/gauss/gdvi01p/gdv/l601.exe)
 Copying SCF densities to generalized density rwf, IOpCl= 1 IROHF=0.

 **********************************************************************

            Population analysis using the SCF density.

 **********************************************************************

 Alpha  occ. eigenvalues --   -2.48473  -0.19631
 Alpha virt. eigenvalues --    0.02441   0.02441   0.02441   0.14324   0.15722
 Alpha virt. eigenvalues --    0.15722   0.15722   0.34905   0.34905   0.34905
 Alpha virt. eigenvalues --    0.34905   0.34905
  Beta  occ. eigenvalues --   -2.47031
  Beta virt. eigenvalues --    0.02246   0.05067   0.05067   0.05067   0.18500
  Beta virt. eigenvalues --    0.19086   0.19086   0.19086   0.37425   0.37425
  Beta virt. eigenvalues --    0.37425   0.37425   0.37425
          Condensed to atoms (all electrons):
               1
     1  Li   3.000000
          Atomic-Atomic Spin Densities.
               1
     1  Li   1.000000
 Mulliken charges and spin densities:
               1          2
     1  Li   0.000000   1.000000
 Sum of Mulliken charges =   0.00000   1.00000
 Mulliken charges and spin densities with hydrogens summed into heavy atoms:
               1          2
     1  Li   0.000000   1.000000
 Electronic spatial extent (au):  <R**2>=             18.5975
 Charge=              0.0000 electrons
 Dipole moment (field-independent basis, Debye):
    X=              0.0000    Y=              0.0000    Z=              0.0000  Tot=              0.0000
 Quadrupole moment (field-independent basis, Debye-Ang):
   XX=             -8.3381   YY=             -8.3381   ZZ=             -8.3381
   XY=              0.0000   XZ=              0.0000   YZ=              0.0000
 Traceless Quadrupole moment (field-independent basis, Debye-Ang):
   XX=              0.0000   YY=              0.0000   ZZ=              0.0000
   XY=              0.0000   XZ=              0.0000   YZ=              0.0000
 Octapole moment (field-independent basis, Debye-Ang**2):
  XXX=              0.0000  YYY=              0.0000  ZZZ=              0.0000  XYY=              0.0000
  XXY=              0.0000  XXZ=              0.0000  XZZ=              0.0000  YZZ=              0.0000
  YYZ=              0.0000  XYZ=              0.0000
 Hexadecapole moment (field-independent basis, Debye-Ang**3):
 XXXX=            -42.1864 YYYY=            -42.1864 ZZZZ=            -42.1864 XXXY=              0.0000
 XXXZ=              0.0000 YYYX=              0.0000 YYYZ=              0.0000 ZZZX=              0.0000
 ZZZY=              0.0000 XXYY=            -14.0621 XXZZ=            -14.0621 YYZZ=            -14.0621
 XXYZ=              0.0000 YYXZ=              0.0000 ZZXY=              0.0000
 N-N= 0.000000000000D+00 E-N=-1.714587429517D+01  KE= 7.432387236679D+00
 Leave Link  601 at Tue Sep 22 14:54:34 2015, MaxMem=    33554432 cpu:               0.0 elap:               0.0
 (Enter /home/gauss/gdvi01p/gdv/l9999.exe)
 Unable to Open any file for archive entry.
 1\1\GINC-MEDUSA\SP\UCIS-Full\CC-pVDZ\Li1(2)\DBWY\22-Sep-2015\0\\#p uhf
 /cc-pVDZ nosymm cis(full,nstates=12,50-50)\\Li cc-pVDZ\\0,2\Li,0,0.,0.
 ,0.\\Version=ES64L-GDVRevI.01+\HF=-7.4324205\MP2=-7.4326136\PUHF=-7.43
 2421\PMP2-0=-7.4326136\S2=0.750001\S2-1=0.75\S2A=0.75\RMSD=4.617e-09\P
 G=OH [O(Li1)]\\@
 The archive entry for this job was punched.


 In the beginning there was nothing, which exploded.
 Job cpu time:       0 days  0 hours  0 minutes  1.1 seconds.
 Elapsed time:       0 days  0 hours  0 minutes  0.9 seconds.
 File lengths (MBytes):  RWF=     12 Int=      0 D2E=      0 Chk=      1 Scr=      1
 Normal termination of Gaussian DV at Tue Sep 22 14:54:34 2015.
