 Entering Gaussian System, Link 0=gdv
 Input=Li_cc-pVDZ_ROHF_field.com
 Output=Li_cc-pVDZ_ROHF_field.log
 Initial command:
 /home/gauss/gdvi01p/gdv/l1.exe "/home/GauScr/Gau-32755.inp" -scrdir="/home/GauScr/"
 Entering Link 1 = /home/gauss/gdvi01p/gdv/l1.exe PID=     32756.
  
 Copyright (c) 1988,1990,1992,1993,1995,1998,2003,2009,2014,
            Gaussian, Inc.  All Rights Reserved.
  
 This is the private, development version of
 the Gaussian(R) DV system of programs. It is based on
 the Gaussian(R) 09 system (copyright 2009, Gaussian, Inc.),
 the Gaussian(R) 03 system (copyright 2003, Gaussian, Inc.),
 the Gaussian(R) 98 system (copyright 1998, Gaussian, Inc.),
 the Gaussian(R) 94 system (copyright 1995, Gaussian, Inc.),
 the Gaussian 92(TM) system (copyright 1992, Gaussian, Inc.),
 the Gaussian 90(TM) system (copyright 1990, Gaussian, Inc.),
 the Gaussian 88(TM) system (copyright 1988, Gaussian, Inc.),
 the Gaussian 86(TM) system (copyright 1986, Carnegie Mellon
 University), and the Gaussian 82(TM) system (copyright 1983,
 Carnegie Mellon University). Gaussian is a federally registered
 trademark of Gaussian, Inc.
  
 This software contains proprietary and confidential information,
 including trade secrets, belonging to Gaussian, Inc.
  
 This software is provided under written license and may be
 used, copied, transmitted, or stored only in accord with that
 written license.
  
 The following legend is applicable only to US Government
 contracts under FAR:
  
                    RESTRICTED RIGHTS LEGEND
  
 Use, reproduction and disclosure by the US Government is
 subject to restrictions as set forth in subparagraphs (a)
 and (c) of the Commercial Computer Software - Restricted
 Rights clause in FAR 52.227-19.
  
 Gaussian, Inc.
 340 Quinnipiac St., Bldg. 40, Wallingford CT 06492
  
  
 ---------------------------------------------------------------
 Warning -- This program may not be used in any manner that
 competes with the business of Gaussian, Inc. or will provide
 assistance to any competitor of Gaussian, Inc.  The licensee
 of this program is prohibited from giving any competitor of
 Gaussian, Inc. access to this program.  By using this program,
 the user acknowledges that Gaussian, Inc. is engaged in the
 business of creating and licensing software in the field of
 computational chemistry and represents and warrants to the
 licensee that it is not a competitor of Gaussian, Inc. and that
 it will not use this program in any manner prohibited above.
 ---------------------------------------------------------------
  

 Cite this work as:
 Gaussian Development Version, Revision I.01+,
 M. J. Frisch, G. W. Trucks, H. B. Schlegel, G. E. Scuseria, 
 M. A. Robb, J. R. Cheeseman, G. Scalmani, V. Barone, B. Mennucci, 
 G. A. Petersson, H. Nakatsuji, M. Caricato, X. Li, H. P. Hratchian, 
 A. F. Izmaylov, J. Bloino, B. G. Janesko, F. Lipparini, G. Zheng, 
 J. L. Sonnenberg, W. Liang, M. Hada, M. Ehara, K. Toyota, R. Fukuda, 
 J. Hasegawa, M. Ishida, T. Nakajima, Y. Honda, O. Kitao, H. Nakai, 
 T. Vreven, J. A. Montgomery, Jr., J. E. Peralta, F. Ogliaro, 
 M. Bearpark, J. J. Heyd, E. Brothers, K. N. Kudin, V. N. Staroverov, 
 T. Keith, R. Kobayashi, J. Normand, K. Raghavachari, A. Rendell, 
 J. C. Burant, S. S. Iyengar, J. Tomasi, M. Cossi, N. Rega, 
 J. M. Millam, M. Klene, J. E. Knox, J. B. Cross, V. Bakken, 
 C. Adamo, J. Jaramillo, R. Gomperts, R. E. Stratmann, O. Yazyev, 
 A. J. Austin, R. Cammi, C. Pomelli, J. W. Ochterski, R. L. Martin, 
 K. Morokuma, V. G. Zakrzewski, G. A. Voth, P. Salvador, 
 J. J. Dannenberg, S. Dapprich, P. V. Parandekar, N. J. Mayhall, 
 A. D. Daniels, O. Farkas, J. B. Foresman, J. V. Ortiz, 
 J. Cioslowski, and D. J. Fox, Gaussian, Inc., Wallingford CT, 2010.
 
 *******************************************
 Gaussian DV:  ES64L-GDVRevI.01+ 11-Sep-2014
                 29-Sep-2015 
 *******************************************
 -------------------------------------
 #p rohf/cc-pVDZ nosymm 6D Field=X-100
 -------------------------------------
 1/38=1,172=1/1;
 2/12=2,15=1,17=6,18=5,40=1/2;
 3/5=16,8=2,11=2,14=1,15=-100,25=1,30=1,116=101/1,2,3;
 4//1;
 5/5=2,38=5/2;
 6/7=2,8=2,9=2,10=2,28=1/1;
 99/5=1,9=1/99;
 Leave Link    1 at Tue Sep 29 11:37:09 2015, MaxMem=           0 cpu:               0.0 elap:               0.0
 (Enter /home/gauss/gdvi01p/gdv/l101.exe)
 ----------
 Li cc-pVDZ
 ----------
 Symbolic Z-matrix:
 Charge =  0 Multiplicity = 2
 Li                    0.        0.        0. 
 
 ITRead=  0
 MicOpt= -1
 NAtoms=      1 NQM=        1 NQMF=       0 NMMI=      0 NMMIF=      0
                NMic=       0 NMicF=      0.
                    Isotopes and Nuclear Properties:
 (Nuclear quadrupole moments (NQMom) in fm**2, nuclear magnetic moments (NMagM)
  in nuclear magnetons)

  Atom         1
 IAtWgt=           7
 AtmWgt=   7.0160045
 NucSpn=           3
 AtZEff=   0.0000000
 NQMom=   -4.0100000
 NMagM=    3.2564240
 AtZNuc=   3.0000000
 Leave Link  101 at Tue Sep 29 11:37:09 2015, MaxMem=    33554432 cpu:               0.1 elap:               0.1
 (Enter /home/gauss/gdvi01p/gdv/l202.exe)
                          Input orientation:                          
 ---------------------------------------------------------------------
 Center     Atomic      Atomic             Coordinates (Angstroms)
 Number     Number       Type             X           Y           Z
 ---------------------------------------------------------------------
      1          3           0        0.000000    0.000000    0.000000
 ---------------------------------------------------------------------
 Symmetry turned off by external request.
 Stoichiometry    Li(2)
 Framework group  OH[O(Li)]
 Deg. of freedom     0
 Full point group                 OH      NOp  48
 Leave Link  202 at Tue Sep 29 11:37:09 2015, MaxMem=    33554432 cpu:               0.0 elap:               0.0
 (Enter /home/gauss/gdvi01p/gdv/l301.exe)
 Standard basis: CC-pVDZ (6D, 7F)
 Ernie: Thresh=  0.10000D-02 Tol=  0.10000D-05 Strict=F.
 Ernie:  3 primitive shells out of 22 were deleted.
 The following finite field(s) will be applied:
 An electric field of             -0.0100  0.0000  0.0000
    15 basis functions,    32 primitive gaussians,    15 cartesian basis functions
     2 alpha electrons        1 beta electrons
       nuclear repulsion energy         0.0000000000 Hartrees.
 IExCor=    0 DFT=F Ex=HF Corr=None ExCW=0 ScaHFX=  1.000000
 ScaDFX=  1.000000  1.000000  1.000000  1.000000 ScalE2=  1.000000  1.000000
 IRadAn=      0 IRanWt=     -1 IRanGd=            0 ICorTp=0 IEmpDi=  4
 NAtoms=    1 NActive=    1 NUniq=    1 SFac= 1.00D+00 NAtFMM=   60 NAOKFM=F Big=F
 Integral buffers will be    131072 words long.
 Raffenetti 2 integral format.
 Two-electron integral symmetry is turned off.
 Leave Link  301 at Tue Sep 29 11:37:09 2015, MaxMem=    33554432 cpu:               0.1 elap:               0.0
 (Enter /home/gauss/gdvi01p/gdv/l302.exe)
 NPDir=0 NMtPBC=     1 NCelOv=     1 NCel=       1 NClECP=     1 NCelD=      1
         NCelK=      1 NCelE2=     1 NClLst=     1 CellRange=     0.0.
 One-electron integrals computed using PRISM.
 One-electron integral symmetry used in STVInt
 NBasis=    15 RedAO= T EigKep=  3.91D-02  NBF=    15
 NBsUse=    15 1.00D-06 EigRej= -1.00D+00 NBFU=    15
 Leave Link  302 at Tue Sep 29 11:37:09 2015, MaxMem=    33554432 cpu:               0.1 elap:               0.1
 (Enter /home/gauss/gdvi01p/gdv/l303.exe)
 DipDrv:  MaxL=1.
 The nuclear repulsion energy is now         0.0000000000 hartrees.
 Leave Link  303 at Tue Sep 29 11:37:09 2015, MaxMem=    33554432 cpu:               0.0 elap:               0.0
 (Enter /home/gauss/gdvi01p/gdv/l401.exe)
 ExpMin= 2.40D-02 ExpMax= 1.47D+03 ExpMxC= 5.03D+01 IAcc=3 IRadAn=         5 AccDes= 0.00D+00
 Harris functional with IExCor=  205 and IRadAn=       5 diagonalized for initial guess.
 HarFok:  IExCor=  205 AccDes= 0.00D+00 IRadAn=         5 IDoV= 1 UseB2=F ITyADJ=14
 ICtDFT=  3500011 ScaDFX=  1.000000  1.000000  1.000000  1.000000
 FoFCou: FMM=F IPFlag=           0 FMFlag=      100000 FMFlg1=           0
         NFxFlg=           0 DoJE=T BraDBF=F KetDBF=T FulRan=T
         wScrn=  0.000000 ICntrl=       500 IOpCl=  0 I1Cent=   200000004 NGrid=           0
         NMat0=    1 NMatS0=      1 NMatT0=    0 NMatD0=    1 NMtDS0=    0 NMtDT0=    0
 Symmetry not used in FoFCou.
 Harris En= -7.39586060616503    
 JPrj=0 DoOrth=F DoCkMO=F.
 Leave Link  401 at Tue Sep 29 11:37:09 2015, MaxMem=    33554432 cpu:               0.1 elap:               0.1
 (Enter /home/gauss/gdvi01p/gdv/l502.exe)
 Keep R1 and R2 ints in memory in canonical form, NReq=841705.
 FoFCou: FMM=F IPFlag=           0 FMFlag=           0 FMFlg1=           0
         NFxFlg=           0 DoJE=F BraDBF=F KetDBF=F FulRan=T
         wScrn=  0.000000 ICntrl=       600 IOpCl=  0 I1Cent=           0 NGrid=           0
         NMat0=    1 NMatS0=    120 NMatT0=    0 NMatD0=    1 NMtDS0=    0 NMtDT0=    0
 Symmetry not used in FoFCou.
 Two-electron integral symmetry not used.
 Restricted open shell SCF:
 Using DIIS extrapolation, IDIIS=  1040.
 NGot=    33554432 LenX=    33538608 LenY=    33537726
 Requested convergence on RMS density matrix=1.00D-08 within 128 cycles.
 Requested convergence on MAX density matrix=1.00D-06.
 Requested convergence on             energy=1.00D-06.
 No special actions if energy rises.

 Cycle   1  Pass 1  IDiag  1:
 E= -7.43714378798183    
 DIIS: error= 2.85D-02 at cycle   1 NSaved=   1.
 NSaved= 1 IEnMin= 1 EnMin= -7.43714378798183     IErMin= 1 ErrMin= 2.85D-02
 ErrMax= 2.85D-02  0.00D+00 EMaxC= 1.00D-01 BMatC= 3.56D-03 BMatP= 3.56D-03
 IDIUse=3 WtCom= 7.15D-01 WtEn= 2.85D-01
 Coeff-Com:  0.100D+01
 Coeff-En:   0.100D+01
 Coeff:      0.100D+01
 Gap=     0.105 Goal=   None    Shift=    0.000
 GapD=    0.105 DampG=1.000 DampE=0.500 DampFc=0.5000 IDamp=-1.
 Damping current iteration by 5.00D-01
 RMSDP=9.47D-03 MaxDP=8.19D-02              OVMax= 2.19D-02

 Cycle   2  Pass 1  IDiag  1:
 E= -7.43857164819833     Delta-E=       -0.001427860217 Rises=F Damp=T
 DIIS: error= 1.58D-02 at cycle   2 NSaved=   2.
 NSaved= 2 IEnMin= 2 EnMin= -7.43857164819833     IErMin= 2 ErrMin= 1.58D-02
 ErrMax= 1.58D-02  0.00D+00 EMaxC= 1.00D-01 BMatC= 1.09D-03 BMatP= 3.56D-03
 IDIUse=3 WtCom= 8.42D-01 WtEn= 1.58D-01
 Coeff-Com: -0.122D+01 0.222D+01
 Coeff-En:   0.000D+00 0.100D+01
 Coeff:     -0.103D+01 0.203D+01
 Gap=     0.089 Goal=   None    Shift=    0.000
 RMSDP=5.52D-03 MaxDP=4.99D-02 DE=-1.43D-03 OVMax= 2.20D-02

 Cycle   3  Pass 1  IDiag  1:
 E= -7.44018069807516     Delta-E=       -0.001609049877 Rises=F Damp=F
 DIIS: error= 1.04D-03 at cycle   3 NSaved=   3.
 NSaved= 3 IEnMin= 3 EnMin= -7.44018069807516     IErMin= 3 ErrMin= 1.04D-03
 ErrMax= 1.04D-03  0.00D+00 EMaxC= 1.00D-01 BMatC= 9.24D-06 BMatP= 1.09D-03
 IDIUse=3 WtCom= 9.90D-01 WtEn= 1.04D-02
 Coeff-Com: -0.548D+00 0.971D+00 0.577D+00
 Coeff-En:   0.000D+00 0.000D+00 0.100D+01
 Coeff:     -0.542D+00 0.961D+00 0.581D+00
 Gap=     0.089 Goal=   None    Shift=    0.000
 RMSDP=9.73D-04 MaxDP=1.24D-02 DE=-1.61D-03 OVMax= 1.14D-02

 Cycle   4  Pass 1  IDiag  1:
 E= -7.44022750562599     Delta-E=       -0.000046807551 Rises=F Damp=F
 DIIS: error= 5.78D-04 at cycle   4 NSaved=   4.
 NSaved= 4 IEnMin= 4 EnMin= -7.44022750562599     IErMin= 4 ErrMin= 5.78D-04
 ErrMax= 5.78D-04  0.00D+00 EMaxC= 1.00D-01 BMatC= 2.25D-06 BMatP= 9.24D-06
 IDIUse=3 WtCom= 9.94D-01 WtEn= 5.78D-03
 Coeff-Com: -0.302D+00 0.546D+00-0.168D+00 0.924D+00
 Coeff-En:   0.000D+00 0.000D+00 0.000D+00 0.100D+01
 Coeff:     -0.301D+00 0.543D+00-0.167D+00 0.925D+00
 Gap=     0.089 Goal=   None    Shift=    0.000
 RMSDP=4.92D-04 MaxDP=6.71D-03 DE=-4.68D-05 OVMax= 5.27D-03

 Cycle   5  Pass 1  IDiag  1:
 E= -7.44023925354269     Delta-E=       -0.000011747917 Rises=F Damp=F
 DIIS: error= 3.20D-04 at cycle   5 NSaved=   5.
 NSaved= 5 IEnMin= 5 EnMin= -7.44023925354269     IErMin= 5 ErrMin= 3.20D-04
 ErrMax= 3.20D-04  0.00D+00 EMaxC= 1.00D-01 BMatC= 7.22D-07 BMatP= 2.25D-06
 IDIUse=3 WtCom= 9.97D-01 WtEn= 3.20D-03
 Coeff-Com: -0.504D-01 0.894D-01 0.610D-01-0.120D+01 0.210D+01
 Coeff-En:   0.000D+00 0.000D+00 0.000D+00 0.000D+00 0.100D+01
 Coeff:     -0.502D-01 0.891D-01 0.608D-01-0.120D+01 0.210D+01
 Gap=     0.089 Goal=   None    Shift=    0.000
 RMSDP=5.41D-04 MaxDP=6.95D-03 DE=-1.17D-05 OVMax= 6.22D-03

 Cycle   6  Pass 1  IDiag  1:
 E= -7.44024500686513     Delta-E=       -0.000005753322 Rises=F Damp=F
 DIIS: error= 5.56D-05 at cycle   6 NSaved=   6.
 NSaved= 6 IEnMin= 6 EnMin= -7.44024500686513     IErMin= 6 ErrMin= 5.56D-05
 ErrMax= 5.56D-05  0.00D+00 EMaxC= 1.00D-01 BMatC= 2.21D-08 BMatP= 7.22D-07
 IDIUse=1 WtCom= 1.00D+00 WtEn= 0.00D+00
 Coeff-Com:  0.275D-01-0.508D-01 0.659D-01-0.165D+00-0.251D+00 0.137D+01
 Coeff:      0.275D-01-0.508D-01 0.659D-01-0.165D+00-0.251D+00 0.137D+01
 Gap=     0.089 Goal=   None    Shift=    0.000
 RMSDP=1.71D-04 MaxDP=2.18D-03 DE=-5.75D-06 OVMax= 1.99D-03

 Cycle   7  Pass 1  IDiag  1:
 E= -7.44024514177786     Delta-E=       -0.000000134913 Rises=F Damp=F
 DIIS: error= 2.99D-05 at cycle   7 NSaved=   7.
 NSaved= 7 IEnMin= 7 EnMin= -7.44024514177786     IErMin= 7 ErrMin= 2.99D-05
 ErrMax= 2.99D-05  0.00D+00 EMaxC= 1.00D-01 BMatC= 6.14D-09 BMatP= 2.21D-08
 IDIUse=1 WtCom= 1.00D+00 WtEn= 0.00D+00
 Coeff-Com:  0.837D-03-0.123D-02-0.146D-01 0.766D-01 0.947D-01-0.411D+00
 Coeff-Com:  0.125D+01
 Coeff:      0.837D-03-0.123D-02-0.146D-01 0.766D-01 0.947D-01-0.411D+00
 Coeff:      0.125D+01
 Gap=     0.089 Goal=   None    Shift=    0.000
 RMSDP=5.93D-05 MaxDP=7.74D-04 DE=-1.35D-07 OVMax= 6.41D-04

 Cycle   8  Pass 1  IDiag  1:
 E= -7.44024518952770     Delta-E=       -0.000000047750 Rises=F Damp=F
 DIIS: error= 5.77D-07 at cycle   8 NSaved=   8.
 NSaved= 8 IEnMin= 8 EnMin= -7.44024518952770     IErMin= 8 ErrMin= 5.77D-07
 ErrMax= 5.77D-07  0.00D+00 EMaxC= 1.00D-01 BMatC= 2.61D-12 BMatP= 6.14D-09
 IDIUse=1 WtCom= 1.00D+00 WtEn= 0.00D+00
 Coeff-Com:  0.929D-04-0.187D-03 0.117D-02-0.617D-02-0.539D-02 0.375D-01
 Coeff-Com: -0.838D-01 0.106D+01
 Coeff:      0.929D-04-0.187D-03 0.117D-02-0.617D-02-0.539D-02 0.375D-01
 Coeff:     -0.838D-01 0.106D+01
 Gap=     0.089 Goal=   None    Shift=    0.000
 RMSDP=9.59D-07 MaxDP=1.17D-05 DE=-4.77D-08 OVMax= 1.22D-05

 Cycle   9  Pass 1  IDiag  1:
 E= -7.44024518954906     Delta-E=       -0.000000000021 Rises=F Damp=F
 DIIS: error= 1.19D-07 at cycle   9 NSaved=   9.
 NSaved= 9 IEnMin= 9 EnMin= -7.44024518954906     IErMin= 9 ErrMin= 1.19D-07
 ErrMax= 1.19D-07  0.00D+00 EMaxC= 1.00D-01 BMatC= 9.88D-14 BMatP= 2.61D-12
 IDIUse=1 WtCom= 1.00D+00 WtEn= 0.00D+00
 Coeff-Com:  0.519D-06 0.284D-07-0.675D-04 0.493D-03 0.386D-03-0.269D-02
 Coeff-Com:  0.390D-02-0.100D+00 0.110D+01
 Coeff:      0.519D-06 0.284D-07-0.675D-04 0.493D-03 0.386D-03-0.269D-02
 Coeff:      0.390D-02-0.100D+00 0.110D+01
 Gap=     0.089 Goal=   None    Shift=    0.000
 RMSDP=2.41D-07 MaxDP=3.13D-06 DE=-2.14D-11 OVMax= 2.71D-06

 Cycle  10  Pass 1  IDiag  1:
 E= -7.44024518954984     Delta-E=       -0.000000000001 Rises=F Damp=F
 DIIS: error= 1.11D-09 at cycle  10 NSaved=  10.
 NSaved=10 IEnMin=10 EnMin= -7.44024518954984     IErMin=10 ErrMin= 1.11D-09
 ErrMax= 1.11D-09  0.00D+00 EMaxC= 1.00D-01 BMatC= 1.18D-17 BMatP= 9.88D-14
 IDIUse=1 WtCom= 1.00D+00 WtEn= 0.00D+00
 Coeff-Com: -0.365D-06 0.787D-06-0.518D-05 0.648D-05 0.258D-04-0.382D-04
 Coeff-Com:  0.610D-03 0.436D-02-0.132D+00 0.113D+01
 Coeff:     -0.365D-06 0.787D-06-0.518D-05 0.648D-05 0.258D-04-0.382D-04
 Coeff:      0.610D-03 0.436D-02-0.132D+00 0.113D+01
 Gap=     0.089 Goal=   None    Shift=    0.000
 RMSDP=1.45D-09 MaxDP=1.48D-08 DE=-7.81D-13 OVMax= 1.62D-08

 SCF Done:  E(ROHF) =  -7.44024518955     A.U. after   10 cycles
            NFock= 10  Conv=0.14D-08     -V/T= 2.0037
 <Sx>= 0.0000 <Sy>= 0.0000 <Sz>= 0.5000 <S**2>= 0.7500 S= 0.5000
 <L.S>= 0.000000000000E+00
 KE= 7.412506131998D+00 PE=-1.710727170965D+01 EE= 2.254520388103D+00
 Annihilation of the first spin contaminant:
 S**2 before annihilation     0.7500,   after     0.7500
 Leave Link  502 at Tue Sep 29 11:37:09 2015, MaxMem=    33554432 cpu:               0.1 elap:               0.1
 (Enter /home/gauss/gdvi01p/gdv/l601.exe)
 Copying SCF densities to generalized density rwf, IOpCl= 0 IROHF=1.

 **********************************************************************

            Population analysis using the SCF density.

 **********************************************************************

 Alpha  occ. eigenvalues --   -2.48870  -0.05705
 Alpha virt. eigenvalues --    0.03203   0.03203   0.03603   0.13790   0.16327
 Alpha virt. eigenvalues --    0.16327   0.17455   0.35146   0.35146   0.35181
 Alpha virt. eigenvalues --    0.35181   0.35190   0.71503
          Condensed to atoms (all electrons):
               1
     1  Li   3.000000
          Atomic-Atomic Spin Densities.
               1
     1  Li   1.000000
 Mulliken charges and spin densities:
               1          2
     1  Li   0.000000   1.000000
 Sum of Mulliken charges =   0.00000   1.00000
 Mulliken charges and spin densities with hydrogens summed into heavy atoms:
               1          2
     1  Li   0.000000   1.000000
 Electronic spatial extent (au):  <R**2>=             20.8387
 Charge=              0.0000 electrons
 Dipole moment (field-independent basis, Debye):
    X=              3.7290    Y=              0.0000    Z=              0.0000  Tot=              3.7290
 Quadrupole moment (field-independent basis, Debye-Ang):
   XX=            -10.5860   YY=             -8.7214   ZZ=             -8.7214
   XY=              0.0000   XZ=              0.0000   YZ=              0.0000
 Traceless Quadrupole moment (field-independent basis, Debye-Ang):
   XX=             -1.2431   YY=              0.6215   ZZ=              0.6215
   XY=              0.0000   XZ=              0.0000   YZ=              0.0000
 Octapole moment (field-independent basis, Debye-Ang**2):
  XXX=             20.4306  YYY=              0.0000  ZZZ=              0.0000  XYY=              6.7615
  XXY=              0.0000  XXZ=              0.0000  XZZ=              6.7615  YZZ=              0.0000
  YYZ=              0.0000  XYZ=              0.0000
 Hexadecapole moment (field-independent basis, Debye-Ang**3):
 XXXX=            -70.5817 YYYY=            -47.7771 ZZZZ=            -47.7771 XXXY=              0.0000
 XXXZ=              0.0000 YYYX=              0.0000 YYYZ=              0.0000 ZZZX=              0.0000
 ZZZY=              0.0000 XXYY=            -19.7254 XXZZ=            -19.7254 YYZZ=            -15.9257
 XXYZ=              0.0000 YYXZ=              0.0000 ZZXY=              0.0000
 N-N= 0.000000000000D+00 E-N=-1.710727171339D+01  KE= 7.412506131998D+00
                          Isotropic Fermi Contact Couplings
        Atom                 a.u.       MegaHertz       Gauss      10(-4) cm-1
     1  Li(7)              0.14240     247.39221      88.27569      82.52116
 --------------------------------------------------------
       Center         ----  Spin Dipole Couplings  ----
                      3XX-RR        3YY-RR        3ZZ-RR
 --------------------------------------------------------
     1   Atom        0.004403     -0.002201     -0.002201
 --------------------------------------------------------
                        XY            XZ            YZ
 --------------------------------------------------------
     1   Atom        0.000000      0.000000      0.000000
 --------------------------------------------------------


 ---------------------------------------------------------------------------------
              Anisotropic Spin Dipole Couplings in Principal Axis System
 ---------------------------------------------------------------------------------

       Atom             a.u.   MegaHertz   Gauss  10(-4) cm-1        Axes

              Baa    -0.0022    -0.456    -0.163    -0.152  0.0000  1.0000  0.0000
     1 Li(7)  Bbb    -0.0022    -0.456    -0.163    -0.152  0.0000  0.0000  1.0000
              Bcc     0.0044     0.913     0.326     0.305  1.0000  0.0000  0.0000
 

 ---------------------------------------------------------------------------------

 No NMR shielding tensors so no spin-rotation constants.
 Leave Link  601 at Tue Sep 29 11:37:09 2015, MaxMem=    33554432 cpu:               0.2 elap:               0.2
 (Enter /home/gauss/gdvi01p/gdv/l9999.exe)
 Unable to Open any file for archive entry.
 1\1\GINC-MEDUSA\SP\ROHF\CC-pVDZ\Li1(2)\DBWY\29-Sep-2015\0\\#p rohf/cc-
 pVDZ nosymm 6D Field=X-100\\Li cc-pVDZ\\0,2\Li,0,0.,0.,0.\\Version=ES6
 4L-GDVRevI.01+\HF=-7.4402452\RMSD=1.448e-09\Dipole=1.4670895,0.,0.\Qua
 drupole=-0.9242068,0.4621034,0.4621034,0.,0.,0.\PG=OH [O(Li1)]\\@
 The archive entry for this job was punched.


 DEPRESSION IS WAITING FOR YOUR SHIP TO COME IN,
 AND FINDING OUT IT'S THE TITANIC.
 Job cpu time:       0 days  0 hours  0 minutes  0.9 seconds.
 Elapsed time:       0 days  0 hours  0 minutes  0.7 seconds.
 File lengths (MBytes):  RWF=      5 Int=      0 D2E=      0 Chk=      1 Scr=      1
 Normal termination of Gaussian DV at Tue Sep 29 11:37:09 2015.
