 Entering Gaussian System, Link 0=gdv
 Input=MnO2_6-31G_ROHF.com
 Output=MnO2_6-31G_ROHF.log
 Initial command:
 /home/gauss/gdvi01p/gdv/l1.exe "/home/GauScr/Gau-32724.inp" -scrdir="/home/GauScr/"
 Entering Link 1 = /home/gauss/gdvi01p/gdv/l1.exe PID=     32725.
  
 Copyright (c) 1988,1990,1992,1993,1995,1998,2003,2009,2014,
            Gaussian, Inc.  All Rights Reserved.
  
 This is the private, development version of
 the Gaussian(R) DV system of programs. It is based on
 the Gaussian(R) 09 system (copyright 2009, Gaussian, Inc.),
 the Gaussian(R) 03 system (copyright 2003, Gaussian, Inc.),
 the Gaussian(R) 98 system (copyright 1998, Gaussian, Inc.),
 the Gaussian(R) 94 system (copyright 1995, Gaussian, Inc.),
 the Gaussian 92(TM) system (copyright 1992, Gaussian, Inc.),
 the Gaussian 90(TM) system (copyright 1990, Gaussian, Inc.),
 the Gaussian 88(TM) system (copyright 1988, Gaussian, Inc.),
 the Gaussian 86(TM) system (copyright 1986, Carnegie Mellon
 University), and the Gaussian 82(TM) system (copyright 1983,
 Carnegie Mellon University). Gaussian is a federally registered
 trademark of Gaussian, Inc.
  
 This software contains proprietary and confidential information,
 including trade secrets, belonging to Gaussian, Inc.
  
 This software is provided under written license and may be
 used, copied, transmitted, or stored only in accord with that
 written license.
  
 The following legend is applicable only to US Government
 contracts under FAR:
  
                    RESTRICTED RIGHTS LEGEND
  
 Use, reproduction and disclosure by the US Government is
 subject to restrictions as set forth in subparagraphs (a)
 and (c) of the Commercial Computer Software - Restricted
 Rights clause in FAR 52.227-19.
  
 Gaussian, Inc.
 340 Quinnipiac St., Bldg. 40, Wallingford CT 06492
  
  
 ---------------------------------------------------------------
 Warning -- This program may not be used in any manner that
 competes with the business of Gaussian, Inc. or will provide
 assistance to any competitor of Gaussian, Inc.  The licensee
 of this program is prohibited from giving any competitor of
 Gaussian, Inc. access to this program.  By using this program,
 the user acknowledges that Gaussian, Inc. is engaged in the
 business of creating and licensing software in the field of
 computational chemistry and represents and warrants to the
 licensee that it is not a competitor of Gaussian, Inc. and that
 it will not use this program in any manner prohibited above.
 ---------------------------------------------------------------
  

 Cite this work as:
 Gaussian Development Version, Revision I.01+,
 M. J. Frisch, G. W. Trucks, H. B. Schlegel, G. E. Scuseria, 
 M. A. Robb, J. R. Cheeseman, G. Scalmani, V. Barone, B. Mennucci, 
 G. A. Petersson, H. Nakatsuji, M. Caricato, X. Li, H. P. Hratchian, 
 A. F. Izmaylov, J. Bloino, B. G. Janesko, F. Lipparini, G. Zheng, 
 J. L. Sonnenberg, W. Liang, M. Hada, M. Ehara, K. Toyota, R. Fukuda, 
 J. Hasegawa, M. Ishida, T. Nakajima, Y. Honda, O. Kitao, H. Nakai, 
 T. Vreven, J. A. Montgomery, Jr., J. E. Peralta, F. Ogliaro, 
 M. Bearpark, J. J. Heyd, E. Brothers, K. N. Kudin, V. N. Staroverov, 
 T. Keith, R. Kobayashi, J. Normand, K. Raghavachari, A. Rendell, 
 J. C. Burant, S. S. Iyengar, J. Tomasi, M. Cossi, N. Rega, 
 J. M. Millam, M. Klene, J. E. Knox, J. B. Cross, V. Bakken, 
 C. Adamo, J. Jaramillo, R. Gomperts, R. E. Stratmann, O. Yazyev, 
 A. J. Austin, R. Cammi, C. Pomelli, J. W. Ochterski, R. L. Martin, 
 K. Morokuma, V. G. Zakrzewski, G. A. Voth, P. Salvador, 
 J. J. Dannenberg, S. Dapprich, P. V. Parandekar, N. J. Mayhall, 
 A. D. Daniels, O. Farkas, J. B. Foresman, J. V. Ortiz, 
 J. Cioslowski, and D. J. Fox, Gaussian, Inc., Wallingford CT, 2010.
 
 *******************************************
 Gaussian DV:  ES64L-GDVRevI.01+ 11-Sep-2014
                 22-Sep-2015 
 *******************************************
 --------------------
 #p rohf/6-31G nosymm
 --------------------
 1/38=1,172=1/1;
 2/12=2,15=1,17=6,18=5,40=1/2;
 3/5=1,6=6,11=2,25=1,30=1,116=101/1,2,3;
 4//1;
 5/5=2,38=5/2;
 6/7=2,8=2,9=2,10=2,28=1/1;
 99/5=1,9=1/99;
 Leave Link    1 at Tue Sep 22 13:39:28 2015, MaxMem=           0 cpu:               0.0 elap:               0.0
 (Enter /home/gauss/gdvi01p/gdv/l101.exe)
 ----------
 MnO2 6-31G
 ----------
 Symbolic Z-matrix:
 Charge =  0 Multiplicity = 4
 Mn                    0.        0.        0. 
 O                     0.        0.        1.84053 
 O                     0.        0.       -1.84053 
 
 ITRead=  0  0  0
 MicOpt= -1 -1 -1
 NAtoms=      3 NQM=        3 NQMF=       0 NMMI=      0 NMMIF=      0
                NMic=       0 NMicF=      0.
                    Isotopes and Nuclear Properties:
 (Nuclear quadrupole moments (NQMom) in fm**2, nuclear magnetic moments (NMagM)
  in nuclear magnetons)

  Atom         1           2           3
 IAtWgt=          55          16          16
 AtmWgt=  54.9380463  15.9949146  15.9949146
 NucSpn=           5           0           0
 AtZEff=   0.0000000   0.0000000   0.0000000
 NQMom=   33.0000000   0.0000000   0.0000000
 NMagM=    3.4532000   0.0000000   0.0000000
 AtZNuc=  25.0000000   8.0000000   8.0000000
 Leave Link  101 at Tue Sep 22 13:39:28 2015, MaxMem=    33554432 cpu:               0.1 elap:               0.1
 (Enter /home/gauss/gdvi01p/gdv/l202.exe)
                          Input orientation:                          
 ---------------------------------------------------------------------
 Center     Atomic      Atomic             Coordinates (Angstroms)
 Number     Number       Type             X           Y           Z
 ---------------------------------------------------------------------
      1         25           0        0.000000    0.000000    0.000000
      2          8           0        0.000000    0.000000    1.840528
      3          8           0        0.000000    0.000000   -1.840528
 ---------------------------------------------------------------------
                    Distance matrix (angstroms):
                    1          2          3
     1  Mn   0.000000
     2  O    1.840528   0.000000
     3  O    1.840528   3.681056   0.000000
 Symmetry turned off by external request.
 Stoichiometry    MnO2(4)
 Framework group  D*H[O(Mn),C*(O.O)]
 Deg. of freedom     1
 Full point group                 D*H     NOp   8
 Rotational constants (GHZ):      0.0000000      4.6635906      4.6635906
 Leave Link  202 at Tue Sep 22 13:39:28 2015, MaxMem=    33554432 cpu:               0.0 elap:               0.0
 (Enter /home/gauss/gdvi01p/gdv/l301.exe)
 Standard basis: 6-31G (6D, 7F)
 Ernie: Thresh=  0.10000D-02 Tol=  0.10000D-05 Strict=F.
    47 basis functions,   138 primitive gaussians,    47 cartesian basis functions
    22 alpha electrons       19 beta electrons
       nuclear repulsion energy       124.2059643306 Hartrees.
 IExCor=    0 DFT=F Ex=HF Corr=None ExCW=0 ScaHFX=  1.000000
 ScaDFX=  1.000000  1.000000  1.000000  1.000000 ScalE2=  1.000000  1.000000
 IRadAn=      0 IRanWt=     -1 IRanGd=            0 ICorTp=0 IEmpDi=  4
 NAtoms=    3 NActive=    3 NUniq=    3 SFac= 1.00D+00 NAtFMM=   60 NAOKFM=F Big=F
 Integral buffers will be    131072 words long.
 Raffenetti 2 integral format.
 Two-electron integral symmetry is turned off.
 Leave Link  301 at Tue Sep 22 13:39:28 2015, MaxMem=    33554432 cpu:               0.0 elap:               0.1
 (Enter /home/gauss/gdvi01p/gdv/l302.exe)
 NPDir=0 NMtPBC=     1 NCelOv=     1 NCel=       1 NClECP=     1 NCelD=      1
         NCelK=      1 NCelE2=     1 NClLst=     1 CellRange=     0.0.
 One-electron integrals computed using PRISM.
 One-electron integral symmetry used in STVInt
 NBasis=    47 RedAO= T EigKep=  1.96D-03  NBF=    47
 NBsUse=    47 1.00D-06 EigRej= -1.00D+00 NBFU=    47
 Leave Link  302 at Tue Sep 22 13:39:28 2015, MaxMem=    33554432 cpu:               0.1 elap:               0.1
 (Enter /home/gauss/gdvi01p/gdv/l303.exe)
 DipDrv:  MaxL=1.
 Leave Link  303 at Tue Sep 22 13:39:28 2015, MaxMem=    33554432 cpu:               0.0 elap:               0.0
 (Enter /home/gauss/gdvi01p/gdv/l401.exe)
 ExpMin= 3.84D-02 ExpMax= 5.63D+04 ExpMxC= 8.46D+03 IAcc=3 IRadAn=         5 AccDes= 0.00D+00
 Harris functional with IExCor=  205 and IRadAn=       5 diagonalized for initial guess.
 HarFok:  IExCor=  205 AccDes= 0.00D+00 IRadAn=         5 IDoV= 1 UseB2=F ITyADJ=14
 ICtDFT=  3500011 ScaDFX=  1.000000  1.000000  1.000000  1.000000
 FoFCou: FMM=F IPFlag=           0 FMFlag=      100000 FMFlg1=           0
         NFxFlg=           0 DoJE=T BraDBF=F KetDBF=T FulRan=T
         wScrn=  0.000000 ICntrl=       500 IOpCl=  0 I1Cent=   200000004 NGrid=           0
         NMat0=    1 NMatS0=      1 NMatT0=    0 NMatD0=    1 NMtDS0=    0 NMtDT0=    0
 Symmetry not used in FoFCou.
 Harris En= -1298.75086608616    
 JPrj=0 DoOrth=F DoCkMO=F.
 Leave Link  401 at Tue Sep 22 13:39:28 2015, MaxMem=    33554432 cpu:               0.3 elap:               0.3
 (Enter /home/gauss/gdvi01p/gdv/l502.exe)
 Keep R1 and R2 ints in memory in canonical form, NReq=2110833.
 FoFCou: FMM=F IPFlag=           0 FMFlag=           0 FMFlg1=           0
         NFxFlg=           0 DoJE=F BraDBF=F KetDBF=F FulRan=T
         wScrn=  0.000000 ICntrl=       600 IOpCl=  0 I1Cent=           0 NGrid=           0
         NMat0=    1 NMatS0=   1128 NMatT0=    0 NMatD0=    1 NMtDS0=    0 NMtDT0=    0
 Symmetry not used in FoFCou.
 Two-electron integral symmetry not used.
 Restricted open shell SCF:
 Using DIIS extrapolation, IDIIS=  1040.
 NGot=    33554432 LenX=    32275732 LenY=    32273082
 Requested convergence on RMS density matrix=1.00D-08 within 128 cycles.
 Requested convergence on MAX density matrix=1.00D-06.
 Requested convergence on             energy=1.00D-06.
 No special actions if energy rises.

 Cycle   1  Pass 1  IDiag  1:
 E= -1297.78319296709    
 DIIS: error= 2.19D-01 at cycle   1 NSaved=   1.
 NSaved= 1 IEnMin= 1 EnMin= -1297.78319296709     IErMin= 1 ErrMin= 2.19D-01
 ErrMax= 2.19D-01  0.00D+00 EMaxC= 1.00D-01 BMatC= 1.80D+00 BMatP= 1.80D+00
 IDIUse=3 WtCom= 0.00D+00 WtEn= 1.00D+00
 Coeff-Com:  0.100D+01
 Coeff-En:   0.100D+01
 Coeff:      0.100D+01
 Gap=     0.076 Goal=   None    Shift=    0.000
 GapD=    0.076 DampG=0.500 DampE=0.125 DampFc=0.1250 IDamp=-1.
 Damping current iteration by 1.25D-01
 RMSDP=5.53D-02 MaxDP=7.85D-01              OVMax= 8.70D-01

 Cycle   2  Pass 1  IDiag  1:
 E= -1298.11984803545     Delta-E=       -0.336655068359 Rises=F Damp=T
 DIIS: error= 8.14D-02 at cycle   2 NSaved=   2.
 NSaved= 2 IEnMin= 2 EnMin= -1298.11984803545     IErMin= 2 ErrMin= 8.14D-02
 ErrMax= 8.14D-02  0.00D+00 EMaxC= 1.00D-01 BMatC= 3.15D-01 BMatP= 1.80D+00
 IDIUse=3 WtCom= 1.86D-01 WtEn= 8.14D-01
 Coeff-Com: -0.432D+00 0.143D+01
 Coeff-En:   0.000D+00 0.100D+01
 Coeff:     -0.803D-01 0.108D+01
 Gap=     0.009 Goal=   None    Shift=    0.000
 RMSDP=3.23D-02 MaxDP=4.47D-01 DE=-3.37D-01 OVMax= 4.56D-01

 Cycle   3  Pass 1  IDiag  1:
 E= -1294.10155535374     Delta-E=        4.018292681706 Rises=F Damp=F
 DIIS: error= 5.54D-01 at cycle   3 NSaved=   3.
 NSaved= 3 IEnMin= 2 EnMin= -1298.11984803545     IErMin= 2 ErrMin= 8.14D-02
 ErrMax= 5.54D-01  0.00D+00 EMaxC= 1.00D-01 BMatC= 6.92D+00 BMatP= 3.15D-01
 IDIUse=2 WtCom= 0.00D+00 WtEn= 1.00D+00
 Rare condition: small coef for last iteration:  0.000D+00
 Coeff-En:   0.862D+00 0.000D+00 0.138D+00
 Coeff:      0.862D+00 0.000D+00 0.138D+00
 Gap=     0.057 Goal=   None    Shift=    0.000
 RMSDP=1.87D-02 MaxDP=1.75D-01 DE= 4.02D+00 OVMax= 2.65D-01

 Cycle   4  Pass 1  IDiag  1:
 E= -1289.18254473546     Delta-E=        4.919010618285 Rises=F Damp=F
 DIIS: error= 6.15D-01 at cycle   4 NSaved=   4.
 NSaved= 4 IEnMin= 2 EnMin= -1298.11984803545     IErMin= 2 ErrMin= 8.14D-02
 ErrMax= 6.15D-01  0.00D+00 EMaxC= 1.00D-01 BMatC= 1.35D+01 BMatP= 3.15D-01
 IDIUse=2 WtCom= 0.00D+00 WtEn= 1.00D+00
 Rare condition: small coef for last iteration:  0.000D+00
 Coeff-En:   0.932D+00 0.000D+00 0.000D+00 0.679D-01
 Coeff:      0.932D+00 0.000D+00 0.000D+00 0.679D-01
 Gap=     0.088 Goal=   None    Shift=    0.000
 RMSDP=6.03D-03 MaxDP=7.33D-02 DE= 4.92D+00 OVMax= 1.12D-01

 Cycle   5  Pass 1  IDiag  1:
 E= -1286.84650631331     Delta-E=        2.336038422149 Rises=F Damp=F
 DIIS: error= 6.25D-01 at cycle   5 NSaved=   5.
 NSaved= 5 IEnMin= 2 EnMin= -1298.11984803545     IErMin= 2 ErrMin= 8.14D-02
 ErrMax= 6.25D-01  0.00D+00 EMaxC= 1.00D-01 BMatC= 1.57D+01 BMatP= 3.15D-01
 IDIUse=2 WtCom= 0.00D+00 WtEn= 1.00D+00
 EnCoef did   100 forward-backward iterations
 Rare condition: small coef for last iteration:  0.000D+00
 Coeff-En:   0.948D+00 0.000D+00 0.000D+00 0.000D+00 0.516D-01
 Coeff:      0.948D+00 0.000D+00 0.000D+00 0.000D+00 0.516D-01
 Gap=     0.094 Goal=   None    Shift=    0.000
 RMSDP=1.80D-03 MaxDP=2.79D-02 DE= 2.34D+00 OVMax= 2.64D-02

 Cycle   6  Pass 1  IDiag  1:
 E= -1286.18881316104     Delta-E=        0.657693152267 Rises=F Damp=F
 DIIS: error= 6.38D-01 at cycle   6 NSaved=   6.
 NSaved= 6 IEnMin= 2 EnMin= -1298.11984803545     IErMin= 2 ErrMin= 8.14D-02
 ErrMax= 6.38D-01  0.00D+00 EMaxC= 1.00D-01 BMatC= 1.63D+01 BMatP= 3.15D-01
 IDIUse=2 WtCom= 0.00D+00 WtEn= 1.00D+00
 EnCoef did   100 forward-backward iterations
 Rare condition: small coef for last iteration:  0.000D+00
 Coeff-En:   0.952D+00 0.000D+00 0.000D+00 0.000D+00 0.000D+00 0.477D-01
 Coeff:      0.952D+00 0.000D+00 0.000D+00 0.000D+00 0.000D+00 0.477D-01
 Gap=     0.094 Goal=   None    Shift=    0.000
 RMSDP=4.77D-04 MaxDP=7.62D-03 DE= 6.58D-01 OVMax= 6.25D-03

 Cycle   7  Pass 1  IDiag  1:
 E= -1286.01917500275     Delta-E=        0.169638158285 Rises=F Damp=F
 DIIS: error= 6.41D-01 at cycle   7 NSaved=   7.
 NSaved= 7 IEnMin= 2 EnMin= -1298.11984803545     IErMin= 2 ErrMin= 8.14D-02
 ErrMax= 6.41D-01  0.00D+00 EMaxC= 1.00D-01 BMatC= 1.65D+01 BMatP= 3.15D-01
 IDIUse=2 WtCom= 0.00D+00 WtEn= 1.00D+00
 EnCoef did   100 forward-backward iterations
 Rare condition: small coef for last iteration:  0.000D+00
 Coeff-En:   0.953D+00 0.000D+00 0.000D+00 0.000D+00 0.000D+00 0.000D+00
 Coeff-En:   0.467D-01
 Coeff:      0.953D+00 0.000D+00 0.000D+00 0.000D+00 0.000D+00 0.000D+00
 Coeff:      0.467D-01
 Gap=     0.094 Goal=   None    Shift=    0.000
 RMSDP=1.16D-04 MaxDP=1.87D-03 DE= 1.70D-01 OVMax= 1.47D-03

 Cycle   8  Pass 1  IDiag  1:
 E= -1285.97821779612     Delta-E=        0.040957206632 Rises=F Damp=F
 DIIS: error= 6.42D-01 at cycle   8 NSaved=   8.
 NSaved= 8 IEnMin= 2 EnMin= -1298.11984803545     IErMin= 2 ErrMin= 8.14D-02
 ErrMax= 6.42D-01  0.00D+00 EMaxC= 1.00D-01 BMatC= 1.65D+01 BMatP= 3.15D-01
 IDIUse=2 WtCom= 0.00D+00 WtEn= 1.00D+00
 EnCoef did   100 forward-backward iterations
 Rare condition: small coef for last iteration:  0.000D+00
 Coeff-En:   0.953D+00 0.000D+00 0.000D+00 0.000D+00 0.000D+00 0.000D+00
 Coeff-En:   0.000D+00 0.465D-01
 Coeff:      0.953D+00 0.000D+00 0.000D+00 0.000D+00 0.000D+00 0.000D+00
 Coeff:      0.000D+00 0.465D-01
 Gap=     0.094 Goal=   None    Shift=    0.000
 RMSDP=2.78D-05 MaxDP=4.51D-04 DE= 4.10D-02 OVMax= 3.51D-04

 Cycle   9  Pass 1  IDiag  1:
 E= -1285.96840716404     Delta-E=        0.009810632085 Rises=F Damp=F
 DIIS: error= 6.42D-01 at cycle   9 NSaved=   9.
 NSaved= 9 IEnMin= 2 EnMin= -1298.11984803545     IErMin= 2 ErrMin= 8.14D-02
 ErrMax= 6.42D-01  0.00D+00 EMaxC= 1.00D-01 BMatC= 1.65D+01 BMatP= 3.15D-01
 IDIUse=2 WtCom= 0.00D+00 WtEn= 1.00D+00
 EnCoef did   100 forward-backward iterations
 Rare condition: small coef for last iteration:  0.000D+00
 Coeff-En:   0.954D+00 0.000D+00 0.000D+00 0.000D+00 0.000D+00 0.000D+00
 Coeff-En:   0.000D+00 0.000D+00 0.465D-01
 Coeff:      0.954D+00 0.000D+00 0.000D+00 0.000D+00 0.000D+00 0.000D+00
 Coeff:      0.000D+00 0.000D+00 0.465D-01
 Gap=     0.094 Goal=   None    Shift=    0.000
 RMSDP=6.64D-06 MaxDP=1.08D-04 DE= 9.81D-03 OVMax= 8.37D-05

 Cycle  10  Pass 1  IDiag  1:
 E= -1285.96606530532     Delta-E=        0.002341858721 Rises=F Damp=F
 DIIS: error= 6.42D-01 at cycle  10 NSaved=  10.
 NSaved=10 IEnMin= 2 EnMin= -1298.11984803545     IErMin= 2 ErrMin= 8.14D-02
 ErrMax= 6.42D-01  0.00D+00 EMaxC= 1.00D-01 BMatC= 1.65D+01 BMatP= 3.15D-01
 IDIUse=2 WtCom= 0.00D+00 WtEn= 1.00D+00
 EnCoef did   100 forward-backward iterations
 Rare condition: small coef for last iteration:  0.000D+00
 Coeff-En:   0.954D+00 0.000D+00 0.000D+00 0.000D+00 0.000D+00 0.000D+00
 Coeff-En:   0.000D+00 0.000D+00 0.000D+00 0.465D-01
 Coeff:      0.954D+00 0.000D+00 0.000D+00 0.000D+00 0.000D+00 0.000D+00
 Coeff:      0.000D+00 0.000D+00 0.000D+00 0.465D-01
 Gap=     0.094 Goal=   None    Shift=    0.000
 RMSDP=1.58D-06 MaxDP=2.57D-05 DE= 2.34D-03 OVMax= 2.00D-05

 Cycle  11  Pass 1  IDiag  1:
 E= -1285.96550662477     Delta-E=        0.000558680547 Rises=F Damp=F
 DIIS: error= 6.42D-01 at cycle  11 NSaved=  11.
 NSaved=11 IEnMin= 2 EnMin= -1298.11984803545     IErMin= 2 ErrMin= 8.14D-02
 ErrMax= 6.42D-01  0.00D+00 EMaxC= 1.00D-01 BMatC= 1.65D+01 BMatP= 3.15D-01
 IDIUse=2 WtCom= 0.00D+00 WtEn= 1.00D+00
 EnCoef did   100 forward-backward iterations
 Rare condition: small coef for last iteration:  0.000D+00
 Coeff-En:   0.954D+00 0.000D+00 0.000D+00 0.000D+00 0.000D+00 0.000D+00
 Coeff-En:   0.000D+00 0.000D+00 0.000D+00 0.000D+00 0.464D-01
 Coeff:      0.954D+00 0.000D+00 0.000D+00 0.000D+00 0.000D+00 0.000D+00
 Coeff:      0.000D+00 0.000D+00 0.000D+00 0.000D+00 0.464D-01
 Gap=     0.094 Goal=   None    Shift=    0.000
 RMSDP=3.78D-07 MaxDP=6.13D-06 DE= 5.59D-04 OVMax= 4.76D-06

 Cycle  12  Pass 1  IDiag  1:
 E= -1285.96537336854     Delta-E=        0.000133256228 Rises=F Damp=F
 DIIS: error= 6.42D-01 at cycle  12 NSaved=  12.
 NSaved=12 IEnMin= 2 EnMin= -1298.11984803545     IErMin= 2 ErrMin= 8.14D-02
 ErrMax= 6.42D-01  0.00D+00 EMaxC= 1.00D-01 BMatC= 1.65D+01 BMatP= 3.15D-01
 IDIUse=2 WtCom= 0.00D+00 WtEn= 1.00D+00
 EnCoef did   100 forward-backward iterations
 Rare condition: small coef for last iteration:  0.000D+00
 Coeff-En:   0.954D+00 0.000D+00 0.000D+00 0.000D+00 0.000D+00 0.000D+00
 Coeff-En:   0.000D+00 0.000D+00 0.000D+00 0.000D+00 0.000D+00 0.464D-01
 Coeff:      0.954D+00 0.000D+00 0.000D+00 0.000D+00 0.000D+00 0.000D+00
 Coeff:      0.000D+00 0.000D+00 0.000D+00 0.000D+00 0.000D+00 0.464D-01
 Gap=     0.094 Goal=   None    Shift=    0.000
 RMSDP=9.01D-08 MaxDP=1.46D-06 DE= 1.33D-04 OVMax= 1.14D-06

 Cycle  13  Pass 1  IDiag  1:
 E= -1285.96534158551     Delta-E=        0.000031783031 Rises=F Damp=F
 DIIS: error= 6.42D-01 at cycle  13 NSaved=  13.
 NSaved=13 IEnMin= 2 EnMin= -1298.11984803545     IErMin= 2 ErrMin= 8.14D-02
 ErrMax= 6.42D-01  0.00D+00 EMaxC= 1.00D-01 BMatC= 1.65D+01 BMatP= 3.15D-01
 IDIUse=2 WtCom= 0.00D+00 WtEn= 1.00D+00
 EnCoef did   100 forward-backward iterations
 Rare condition: small coef for last iteration:  0.000D+00
 Coeff-En:   0.954D+00 0.000D+00 0.000D+00 0.000D+00 0.000D+00 0.000D+00
 Coeff-En:   0.000D+00 0.000D+00 0.000D+00 0.000D+00 0.000D+00 0.000D+00
 Coeff-En:   0.464D-01
 Coeff:      0.954D+00 0.000D+00 0.000D+00 0.000D+00 0.000D+00 0.000D+00
 Coeff:      0.000D+00 0.000D+00 0.000D+00 0.000D+00 0.000D+00 0.000D+00
 Coeff:      0.464D-01
 Gap=     0.094 Goal=   None    Shift=    0.000
 RMSDP=2.15D-08 MaxDP=3.49D-07 DE= 3.18D-05 OVMax= 2.71D-07

 Cycle  14  Pass 1  IDiag  1:
 E= -1285.96533400499     Delta-E=        0.000007580522 Rises=F Damp=F
 DIIS: error= 6.42D-01 at cycle  14 NSaved=  14.
 NSaved=14 IEnMin= 2 EnMin= -1298.11984803545     IErMin= 2 ErrMin= 8.14D-02
 ErrMax= 6.42D-01  0.00D+00 EMaxC= 1.00D-01 BMatC= 1.65D+01 BMatP= 3.15D-01
 IDIUse=2 WtCom= 0.00D+00 WtEn= 1.00D+00
 EnCoef did   100 forward-backward iterations
 Rare condition: small coef for last iteration:  0.000D+00
 Coeff-En:   0.954D+00 0.000D+00 0.000D+00 0.000D+00 0.000D+00 0.000D+00
 Coeff-En:   0.000D+00 0.000D+00 0.000D+00 0.000D+00 0.000D+00 0.000D+00
 Coeff-En:   0.000D+00 0.464D-01
 Coeff:      0.954D+00 0.000D+00 0.000D+00 0.000D+00 0.000D+00 0.000D+00
 Coeff:      0.000D+00 0.000D+00 0.000D+00 0.000D+00 0.000D+00 0.000D+00
 Coeff:      0.000D+00 0.464D-01
 Gap=     0.094 Goal=   None    Shift=    0.000
 RMSDP=5.12D-09 MaxDP=8.32D-08 DE= 7.58D-06 OVMax= 6.46D-08

 Cycle  15  Pass 1  IDiag  1:
 E= -1285.96533219698     Delta-E=        0.000001808013 Rises=F Damp=F
 DIIS: error= 6.42D-01 at cycle  15 NSaved=  15.
 NSaved=15 IEnMin= 2 EnMin= -1298.11984803545     IErMin= 2 ErrMin= 8.14D-02
 ErrMax= 6.42D-01  0.00D+00 EMaxC= 1.00D-01 BMatC= 1.65D+01 BMatP= 3.15D-01
 IDIUse=2 WtCom= 0.00D+00 WtEn= 1.00D+00
 EnCoef did   100 forward-backward iterations
 Rare condition: small coef for last iteration:  0.000D+00
 Coeff-En:   0.954D+00 0.000D+00 0.000D+00 0.000D+00 0.000D+00 0.000D+00
 Coeff-En:   0.000D+00 0.000D+00 0.000D+00 0.000D+00 0.000D+00 0.000D+00
 Coeff-En:   0.000D+00 0.000D+00 0.464D-01
 Coeff:      0.954D+00 0.000D+00 0.000D+00 0.000D+00 0.000D+00 0.000D+00
 Coeff:      0.000D+00 0.000D+00 0.000D+00 0.000D+00 0.000D+00 0.000D+00
 Coeff:      0.000D+00 0.000D+00 0.464D-01
 Gap=     0.094 Goal=   None    Shift=    0.000
 RMSDP=1.22D-09 MaxDP=1.98D-08 DE= 1.81D-06 OVMax= 1.54D-08

 Cycle  16  Pass 1  IDiag  1:
 E= -1285.96533176575     Delta-E=        0.000000431224 Rises=F Damp=F
 DIIS: error= 6.42D-01 at cycle  16 NSaved=  16.
 NSaved=16 IEnMin= 2 EnMin= -1298.11984803545     IErMin= 2 ErrMin= 8.14D-02
 ErrMax= 6.42D-01  0.00D+00 EMaxC= 1.00D-01 BMatC= 1.65D+01 BMatP= 3.15D-01
 IDIUse=2 WtCom= 0.00D+00 WtEn= 1.00D+00
 EnCoef did   100 forward-backward iterations
 Rare condition: small coef for last iteration:  0.000D+00
 Coeff-En:   0.954D+00 0.000D+00 0.000D+00 0.000D+00 0.000D+00 0.000D+00
 Coeff-En:   0.000D+00 0.000D+00 0.000D+00 0.000D+00 0.000D+00 0.000D+00
 Coeff-En:   0.000D+00 0.000D+00 0.000D+00 0.464D-01
 Coeff:      0.954D+00 0.000D+00 0.000D+00 0.000D+00 0.000D+00 0.000D+00
 Coeff:      0.000D+00 0.000D+00 0.000D+00 0.000D+00 0.000D+00 0.000D+00
 Coeff:      0.000D+00 0.000D+00 0.000D+00 0.464D-01
 Gap=     0.094 Goal=   None    Shift=    0.000
 RMSDP=2.91D-10 MaxDP=4.73D-09 DE= 4.31D-07 OVMax= 3.67D-09

 Cycle  17  Pass 1  IDiag  1:
 E= -1285.96533166291     Delta-E=        0.000000102842 Rises=F Damp=F
 DIIS: error= 6.42D-01 at cycle  17 NSaved=  17.
 NSaved=17 IEnMin= 2 EnMin= -1298.11984803545     IErMin= 2 ErrMin= 8.14D-02
 ErrMax= 6.42D-01  0.00D+00 EMaxC= 1.00D-01 BMatC= 1.65D+01 BMatP= 3.15D-01
 IDIUse=2 WtCom= 0.00D+00 WtEn= 1.00D+00
 EnCoef did   100 forward-backward iterations
 Rare condition: small coef for last iteration:  0.000D+00
 Coeff-En:   0.954D+00 0.000D+00 0.000D+00 0.000D+00 0.000D+00 0.000D+00
 Coeff-En:   0.000D+00 0.000D+00 0.000D+00 0.000D+00 0.000D+00 0.000D+00
 Coeff-En:   0.000D+00 0.000D+00 0.000D+00 0.000D+00 0.464D-01
 Coeff:      0.954D+00 0.000D+00 0.000D+00 0.000D+00 0.000D+00 0.000D+00
 Coeff:      0.000D+00 0.000D+00 0.000D+00 0.000D+00 0.000D+00 0.000D+00
 Coeff:      0.000D+00 0.000D+00 0.000D+00 0.000D+00 0.464D-01
 Gap=     0.094 Goal=   None    Shift=    0.000
 RMSDP=6.95D-11 MaxDP=1.13D-09 DE= 1.03D-07 OVMax= 8.76D-10

 Cycle  18  Pass 1  IDiag  1:
 E= -1285.96533163837     Delta-E=        0.000000024534 Rises=F Damp=F
 DIIS: error= 6.42D-01 at cycle  18 NSaved=  18.
 NSaved=18 IEnMin= 2 EnMin= -1298.11984803545     IErMin= 2 ErrMin= 8.14D-02
 ErrMax= 6.42D-01  0.00D+00 EMaxC= 1.00D-01 BMatC= 1.65D+01 BMatP= 3.15D-01
 IDIUse=2 WtCom= 0.00D+00 WtEn= 1.00D+00
 EnCoef did   100 forward-backward iterations
 Rare condition: small coef for last iteration:  0.000D+00
 Coeff-En:   0.954D+00 0.000D+00 0.000D+00 0.000D+00 0.000D+00 0.000D+00
 Coeff-En:   0.000D+00 0.000D+00 0.000D+00 0.000D+00 0.000D+00 0.000D+00
 Coeff-En:   0.000D+00 0.000D+00 0.000D+00 0.000D+00 0.000D+00 0.464D-01
 Coeff:      0.954D+00 0.000D+00 0.000D+00 0.000D+00 0.000D+00 0.000D+00
 Coeff:      0.000D+00 0.000D+00 0.000D+00 0.000D+00 0.000D+00 0.000D+00
 Coeff:      0.000D+00 0.000D+00 0.000D+00 0.000D+00 0.000D+00 0.464D-01
 Gap=     0.094 Goal=   None    Shift=    0.000
 RMSDP=1.66D-11 MaxDP=2.69D-10 DE= 2.45D-08 OVMax= 2.09D-10

 Cycle  19  Pass 1  IDiag  1:
 E= -1285.96533163252     Delta-E=        0.000000005855 Rises=F Damp=F
 DIIS: error= 6.42D-01 at cycle  19 NSaved=  19.
 NSaved=19 IEnMin= 2 EnMin= -1298.11984803545     IErMin= 2 ErrMin= 8.14D-02
 ErrMax= 6.42D-01  0.00D+00 EMaxC= 1.00D-01 BMatC= 1.65D+01 BMatP= 3.15D-01
 IDIUse=2 WtCom= 0.00D+00 WtEn= 1.00D+00
 EnCoef did   100 forward-backward iterations
 Rare condition: small coef for last iteration:  0.000D+00
 Coeff-En:   0.954D+00 0.000D+00 0.000D+00 0.000D+00 0.000D+00 0.000D+00
 Coeff-En:   0.000D+00 0.000D+00 0.000D+00 0.000D+00 0.000D+00 0.000D+00
 Coeff-En:   0.000D+00 0.000D+00 0.000D+00 0.000D+00 0.000D+00 0.000D+00
 Coeff-En:   0.464D-01
 Coeff:      0.954D+00 0.000D+00 0.000D+00 0.000D+00 0.000D+00 0.000D+00
 Coeff:      0.000D+00 0.000D+00 0.000D+00 0.000D+00 0.000D+00 0.000D+00
 Coeff:      0.000D+00 0.000D+00 0.000D+00 0.000D+00 0.000D+00 0.000D+00
 Coeff:      0.464D-01
 Gap=     0.094 Goal=   None    Shift=    0.000
 RMSDP=3.97D-12 MaxDP=6.46D-11 DE= 5.85D-09 OVMax= 5.00D-11

 Cycle  20  Pass 1  IDiag  1:
 E= -1285.96533163112     Delta-E=        0.000000001397 Rises=F Damp=F
 DIIS: error= 6.42D-01 at cycle  20 NSaved=  20.
 NSaved=20 IEnMin= 2 EnMin= -1298.11984803545     IErMin= 2 ErrMin= 8.14D-02
 ErrMax= 6.42D-01  0.00D+00 EMaxC= 1.00D-01 BMatC= 1.65D+01 BMatP= 3.15D-01
 IDIUse=2 WtCom= 0.00D+00 WtEn= 1.00D+00
 EnCoef did   100 forward-backward iterations
 Rare condition: small coef for last iteration:  0.000D+00
 Coeff-En:   0.954D+00 0.000D+00 0.000D+00 0.000D+00 0.000D+00 0.000D+00
 Coeff-En:   0.000D+00 0.000D+00 0.000D+00 0.000D+00 0.000D+00 0.000D+00
 Coeff-En:   0.000D+00 0.000D+00 0.000D+00 0.000D+00 0.000D+00 0.000D+00
 Coeff-En:   0.000D+00 0.464D-01
 Coeff:      0.954D+00 0.000D+00 0.000D+00 0.000D+00 0.000D+00 0.000D+00
 Coeff:      0.000D+00 0.000D+00 0.000D+00 0.000D+00 0.000D+00 0.000D+00
 Coeff:      0.000D+00 0.000D+00 0.000D+00 0.000D+00 0.000D+00 0.000D+00
 Coeff:      0.000D+00 0.464D-01
 Gap=     0.094 Goal=   None    Shift=    0.000
 RMSDP=9.25D-13 MaxDP=1.48D-11 DE= 1.40D-09 OVMax= 1.17D-11

 Cycle  21  Pass 1  IDiag  1:
 E= -1285.96533163079     Delta-E=        0.000000000332 Rises=F Damp=F
 DIIS: error= 6.42D-01 at cycle  21 NSaved=  20.
 NSaved=20 IEnMin= 2 EnMin= -1298.11984803545     IErMin= 2 ErrMin= 8.14D-02
 ErrMax= 6.42D-01  0.00D+00 EMaxC= 1.00D-01 BMatC= 1.65D+01 BMatP= 3.15D-01
 IDIUse=2 WtCom= 0.00D+00 WtEn= 1.00D+00
 EnCoef did   100 forward-backward iterations
 Rare condition: small coef for last iteration:  0.000D+00
 Coeff-En:   0.954D+00 0.000D+00 0.000D+00 0.000D+00 0.000D+00 0.000D+00
 Coeff-En:   0.000D+00 0.000D+00 0.000D+00 0.000D+00 0.000D+00 0.000D+00
 Coeff-En:   0.000D+00 0.000D+00 0.000D+00 0.000D+00 0.000D+00 0.000D+00
 Coeff-En:   0.000D+00 0.464D-01
 Coeff:      0.954D+00 0.000D+00 0.000D+00 0.000D+00 0.000D+00 0.000D+00
 Coeff:      0.000D+00 0.000D+00 0.000D+00 0.000D+00 0.000D+00 0.000D+00
 Coeff:      0.000D+00 0.000D+00 0.000D+00 0.000D+00 0.000D+00 0.000D+00
 Coeff:      0.000D+00 0.464D-01
 Gap=     0.094 Goal=   None    Shift=    0.000
 RMSDP=2.47D-13 MaxDP=4.10D-12 DE= 3.32D-10 OVMax= 3.08D-12

 Density matrix is not changing but DIIS error= 6.42D-01 CofLast= 0.00D+00.
 Cycle  22  Pass 1  IDiag  1:
 E= -1285.96533163071     Delta-E=        0.000000000083 Rises=F Damp=F
 DIIS: error= 6.42D-01 at cycle   1 NSaved=   1.
 NSaved= 1 IEnMin= 1 EnMin= -1285.96533163071     IErMin= 1 ErrMin= 6.42D-01
 ErrMax= 6.42D-01  0.00D+00 EMaxC= 1.00D+00 BMatC= 1.65D+01 BMatP= 1.65D+01
 IDIUse=1 WtCom= 1.00D+00 WtEn= 0.00D+00
 Coeff-Com:  0.100D+01
 Coeff:      0.100D+01
 Gap=     0.184 Goal=   None    Shift=    0.000
 RMSDP=1.55D-01 MaxDP=3.68D+00 DE= 8.28D-11 OVMax= 9.04D-01

 Cycle  23  Pass 1  IDiag  1:
 E= -1244.50967693137     Delta-E=       41.455654699340 Rises=F Damp=F
 DIIS: error= 1.13D+00 at cycle  23 NSaved=   2.
 NSaved= 2 IEnMin= 1 EnMin= -1285.96533163071     IErMin= 1 ErrMin= 6.42D-01
 ErrMax= 1.13D+00  0.00D+00 EMaxC= 1.00D+00 BMatC= 3.29D+01 BMatP= 1.65D+01
 IDIUse=1 WtCom= 1.00D+00 WtEn= 0.00D+00
 Coeff-Com:  0.632D+00 0.368D+00
 Coeff:      0.632D+00 0.368D+00
 Gap=    -0.448 Goal=   None    Shift=    0.000
 RMSDP=1.51D-01 MaxDP=3.73D+00 DE= 4.15D+01 OVMax= 7.74D-01

 Cycle  24  Pass 1  IDiag  1:
 E= -1294.22330944013     Delta-E=      -49.713632508762 Rises=F Damp=F
 DIIS: error= 5.32D-01 at cycle  24 NSaved=   3.
 NSaved= 3 IEnMin= 3 EnMin= -1294.22330944013     IErMin= 3 ErrMin= 5.32D-01
 ErrMax= 5.32D-01  0.00D+00 EMaxC= 1.00D+00 BMatC= 6.09D+00 BMatP= 1.65D+01
 IDIUse=1 WtCom= 1.00D+00 WtEn= 0.00D+00
 Coeff-Com: -0.388D+00 0.177D+00 0.121D+01
 Coeff:     -0.388D+00 0.177D+00 0.121D+01
 Gap=     0.050 Goal=   None    Shift=    0.000
 RMSDP=1.75D-02 MaxDP=2.39D-01 DE=-4.97D+01 OVMax= 4.19D-01

 Cycle  25  Pass 1  IDiag  1:
 E= -1297.76622619565     Delta-E=       -3.542916755518 Rises=F Damp=F
 DIIS: error= 2.33D-01 at cycle  25 NSaved=   4.
 NSaved= 4 IEnMin= 4 EnMin= -1297.76622619565     IErMin= 4 ErrMin= 2.33D-01
 ErrMax= 2.33D-01  0.00D+00 EMaxC= 1.00D+00 BMatC= 9.77D-01 BMatP= 6.09D+00
 IDIUse=1 WtCom= 1.00D+00 WtEn= 0.00D+00
 Coeff-Com: -0.443D-01 0.464D-01-0.339D+00 0.134D+01
 Coeff:     -0.443D-01 0.464D-01-0.339D+00 0.134D+01
 Gap=     0.402 Goal=   None    Shift=    0.000
 RMSDP=1.25D-02 MaxDP=1.43D-01 DE=-3.54D+00 OVMax= 2.69D-01

 Cycle  26  Pass 1  IDiag  1:
 E= -1298.42219708763     Delta-E=       -0.655970891976 Rises=F Damp=F
 DIIS: error= 9.55D-02 at cycle  26 NSaved=   5.
 NSaved= 5 IEnMin= 5 EnMin= -1298.42219708763     IErMin= 5 ErrMin= 9.55D-02
 ErrMax= 9.55D-02  0.00D+00 EMaxC= 1.00D+00 BMatC= 2.27D-01 BMatP= 9.77D-01
 IDIUse=1 WtCom= 1.00D+00 WtEn= 0.00D+00
 Coeff-Com:  0.287D-01 0.162D-01-0.310D+00 0.426D+00 0.839D+00
 Coeff:      0.287D-01 0.162D-01-0.310D+00 0.426D+00 0.839D+00
 Gap=     0.343 Goal=   None    Shift=    0.000
 RMSDP=7.00D-03 MaxDP=7.78D-02 DE=-6.56D-01 OVMax= 1.37D-01

 Cycle  27  Pass 1  IDiag  1:
 E= -1298.57057254347     Delta-E=       -0.148375455846 Rises=F Damp=F
 DIIS: error= 3.31D-02 at cycle  27 NSaved=   6.
 NSaved= 6 IEnMin= 6 EnMin= -1298.57057254347     IErMin= 6 ErrMin= 3.31D-02
 ErrMax= 3.31D-02  0.00D+00 EMaxC= 1.00D+00 BMatC= 3.41D-02 BMatP= 2.27D-01
 IDIUse=1 WtCom= 1.00D+00 WtEn= 0.00D+00
 Coeff-Com: -0.233D-01 0.396D-02 0.591D-01-0.197D+00-0.209D+00 0.137D+01
 Coeff:     -0.233D-01 0.396D-02 0.591D-01-0.197D+00-0.209D+00 0.137D+01
 Gap=     0.347 Goal=   None    Shift=    0.000
 RMSDP=3.09D-03 MaxDP=4.17D-02 DE=-1.48D-01 OVMax= 4.61D-02

 Cycle  28  Pass 1  IDiag  1:
 E= -1298.60014817611     Delta-E=       -0.029575632642 Rises=F Damp=F
 DIIS: error= 7.58D-03 at cycle  28 NSaved=   7.
 NSaved= 7 IEnMin= 7 EnMin= -1298.60014817611     IErMin= 7 ErrMin= 7.58D-03
 ErrMax= 7.58D-03  0.00D+00 EMaxC= 1.00D+00 BMatC= 9.45D-04 BMatP= 3.41D-02
 IDIUse=1 WtCom= 1.00D+00 WtEn= 0.00D+00
 Coeff-Com: -0.486D-03-0.413D-03 0.352D-02 0.132D-01-0.507D-02-0.232D+00
 Coeff-Com:  0.122D+01
 Coeff:     -0.486D-03-0.413D-03 0.352D-02 0.132D-01-0.507D-02-0.232D+00
 Coeff:      0.122D+01
 Gap=     0.349 Goal=   None    Shift=    0.000
 RMSDP=1.84D-03 MaxDP=2.56D-02 DE=-2.96D-02 OVMax= 3.85D-02

 Cycle  29  Pass 1  IDiag  1:
 E= -1298.60255309198     Delta-E=       -0.002404915864 Rises=F Damp=F
 DIIS: error= 6.84D-03 at cycle  29 NSaved=   8.
 NSaved= 8 IEnMin= 8 EnMin= -1298.60255309198     IErMin= 8 ErrMin= 6.84D-03
 ErrMax= 6.84D-03  0.00D+00 EMaxC= 1.00D+00 BMatC= 6.94D-04 BMatP= 9.45D-04
 IDIUse=1 WtCom= 1.00D+00 WtEn= 0.00D+00
 Coeff-Com:  0.271D-02 0.125D-04-0.490D-02-0.679D-02 0.453D-01 0.126D+00
 Coeff-Com: -0.333D+00 0.117D+01
 Coeff:      0.271D-02 0.125D-04-0.490D-02-0.679D-02 0.453D-01 0.126D+00
 Coeff:     -0.333D+00 0.117D+01
 Gap=     0.349 Goal=   None    Shift=    0.000
 RMSDP=6.60D-04 MaxDP=6.61D-03 DE=-2.40D-03 OVMax= 1.00D-02

 Cycle  30  Pass 1  IDiag  1:
 E= -1298.60326126658     Delta-E=       -0.000708174604 Rises=F Damp=F
 DIIS: error= 2.41D-03 at cycle  30 NSaved=   9.
 NSaved= 9 IEnMin= 9 EnMin= -1298.60326126658     IErMin= 9 ErrMin= 2.41D-03
 ErrMax= 2.41D-03  0.00D+00 EMaxC= 1.00D+00 BMatC= 9.00D-05 BMatP= 6.94D-04
 IDIUse=1 WtCom= 1.00D+00 WtEn= 0.00D+00
 Coeff-Com:  0.455D-03-0.141D-03 0.146D-02-0.106D-01 0.269D-02 0.398D-01
 Coeff-Com: -0.165D+00-0.381D+00 0.151D+01
 Coeff:      0.455D-03-0.141D-03 0.146D-02-0.106D-01 0.269D-02 0.398D-01
 Coeff:     -0.165D+00-0.381D+00 0.151D+01
 Gap=     0.350 Goal=   None    Shift=    0.000
 RMSDP=5.92D-04 MaxDP=7.54D-03 DE=-7.08D-04 OVMax= 1.12D-02

 Cycle  31  Pass 1  IDiag  1:
 E= -1298.60347320953     Delta-E=       -0.000211942952 Rises=F Damp=F
 DIIS: error= 9.38D-04 at cycle  31 NSaved=  10.
 NSaved=10 IEnMin=10 EnMin= -1298.60347320953     IErMin=10 ErrMin= 9.38D-04
 ErrMax= 9.38D-04  0.00D+00 EMaxC= 1.00D+00 BMatC= 1.55D-05 BMatP= 9.00D-05
 IDIUse=1 WtCom= 1.00D+00 WtEn= 0.00D+00
 Coeff-Com: -0.654D-04-0.881D-04 0.626D-03 0.512D-03-0.672D-02-0.295D-01
 Coeff-Com:  0.989D-01-0.382D+00 0.242D+00 0.108D+01
 Coeff:     -0.654D-04-0.881D-04 0.626D-03 0.512D-03-0.672D-02-0.295D-01
 Coeff:      0.989D-01-0.382D+00 0.242D+00 0.108D+01
 Gap=     0.350 Goal=   None    Shift=    0.000
 RMSDP=2.05D-04 MaxDP=2.53D-03 DE=-2.12D-04 OVMax= 3.54D-03

 Cycle  32  Pass 1  IDiag  1:
 E= -1298.60349475219     Delta-E=       -0.000021542660 Rises=F Damp=F
 DIIS: error= 2.84D-04 at cycle  32 NSaved=  11.
 NSaved=11 IEnMin=11 EnMin= -1298.60349475219     IErMin=11 ErrMin= 2.84D-04
 ErrMax= 2.84D-04  0.00D+00 EMaxC= 1.00D+00 BMatC= 1.83D-06 BMatP= 1.55D-05
 IDIUse=1 WtCom= 1.00D+00 WtEn= 0.00D+00
 Coeff-Com:  0.944D-04-0.609D-05-0.303D-03 0.550D-03 0.118D-02 0.262D-02
 Coeff-Com:  0.169D-01 0.490D-01-0.127D+00-0.120D+00 0.118D+01
 Coeff:      0.944D-04-0.609D-05-0.303D-03 0.550D-03 0.118D-02 0.262D-02
 Coeff:      0.169D-01 0.490D-01-0.127D+00-0.120D+00 0.118D+01
 Gap=     0.350 Goal=   None    Shift=    0.000
 RMSDP=4.32D-05 MaxDP=4.97D-04 DE=-2.15D-05 OVMax= 4.34D-04

 Cycle  33  Pass 1  IDiag  1:
 E= -1298.60349572936     Delta-E=       -0.000000977163 Rises=F Damp=F
 DIIS: error= 1.26D-04 at cycle  33 NSaved=  12.
 NSaved=12 IEnMin=12 EnMin= -1298.60349572936     IErMin=12 ErrMin= 1.26D-04
 ErrMax= 1.26D-04  0.00D+00 EMaxC= 1.00D+00 BMatC= 8.79D-07 BMatP= 1.83D-06
 IDIUse=1 WtCom= 1.00D+00 WtEn= 0.00D+00
 Coeff-Com:  0.822D-04-0.442D-05-0.267D-03 0.453D-03 0.113D-02 0.280D-02
 Coeff-Com:  0.131D-01 0.488D-01-0.114D+00-0.122D+00 0.102D+01 0.149D+00
 Coeff:      0.822D-04-0.442D-05-0.267D-03 0.453D-03 0.113D-02 0.280D-02
 Coeff:      0.131D-01 0.488D-01-0.114D+00-0.122D+00 0.102D+01 0.149D+00
 Gap=     0.350 Goal=   None    Shift=    0.000
 RMSDP=1.39D-05 MaxDP=2.52D-04 DE=-9.77D-07 OVMax= 5.57D-05

 Cycle  34  Pass 1  IDiag  1:
 E= -1298.60349687129     Delta-E=       -0.000001141930 Rises=F Damp=F
 DIIS: error= 2.44D-05 at cycle  34 NSaved=  13.
 NSaved=13 IEnMin=13 EnMin= -1298.60349687129     IErMin=13 ErrMin= 2.44D-05
 ErrMax= 2.44D-05  0.00D+00 EMaxC= 1.00D+00 BMatC= 2.44D-08 BMatP= 8.79D-07
 IDIUse=1 WtCom= 1.00D+00 WtEn= 0.00D+00
 Coeff-Com:  0.191D-04-0.221D-05-0.567D-04 0.494D-04 0.401D-03 0.134D-02
 Coeff-Com:  0.237D-02 0.183D-01-0.348D-01-0.493D-01 0.272D+00 0.135D-01
 Coeff-Com:  0.776D+00
 Coeff:      0.191D-04-0.221D-05-0.567D-04 0.494D-04 0.401D-03 0.134D-02
 Coeff:      0.237D-02 0.183D-01-0.348D-01-0.493D-01 0.272D+00 0.135D-01
 Coeff:      0.776D+00
 Gap=     0.350 Goal=   None    Shift=    0.000
 RMSDP=2.37D-04 MaxDP=3.36D-03 DE=-1.14D-06 OVMax= 8.14D-05

 Cycle  35  Pass 1  IDiag  1:
 E= -1298.60353603777     Delta-E=       -0.000039166482 Rises=F Damp=F
 DIIS: error= 4.57D-04 at cycle  35 NSaved=  14.
 NSaved=14 IEnMin=14 EnMin= -1298.60353603777     IErMin=13 ErrMin= 2.44D-05
 ErrMax= 4.57D-04  0.00D+00 EMaxC= 1.00D+00 BMatC= 7.19D-06 BMatP= 2.44D-08
 IDIUse=1 WtCom= 1.00D+00 WtEn= 0.00D+00
 Coeff-Com: -0.604D-05-0.135D-05 0.279D-04-0.126D-03 0.162D-03 0.935D-03
 Coeff-Com: -0.215D-02 0.868D-02-0.589D-02-0.275D-01-0.177D-01 0.310D+00
 Coeff-Com:  0.859D+00-0.125D+00
 Coeff:     -0.604D-05-0.135D-05 0.279D-04-0.126D-03 0.162D-03 0.935D-03
 Coeff:     -0.215D-02 0.868D-02-0.589D-02-0.275D-01-0.177D-01 0.310D+00
 Coeff:      0.859D+00-0.125D+00
 Gap=     0.350 Goal=   None    Shift=    0.000
 RMSDP=2.59D-04 MaxDP=3.67D-03 DE=-3.92D-05 OVMax= 4.51D-05

 Cycle  36  Pass 1  IDiag  1:
 E= -1298.60349626442     Delta-E=        0.000039773350 Rises=F Damp=F
 DIIS: error= 1.58D-05 at cycle  36 NSaved=  15.
 NSaved=15 IEnMin=14 EnMin= -1298.60353603777     IErMin=15 ErrMin= 1.58D-05
 ErrMax= 1.58D-05  0.00D+00 EMaxC= 1.00D+00 BMatC= 9.87D-09 BMatP= 2.44D-08
 IDIUse=1 WtCom= 1.00D+00 WtEn= 0.00D+00
 Coeff-Com: -0.405D-05-0.809D-07 0.122D-04-0.320D-04-0.299D-05 0.110D-04
 Coeff-Com: -0.119D-02-0.639D-03 0.438D-02-0.465D-03-0.627D-01 0.840D-01
 Coeff-Com:  0.259D+00-0.639D-01 0.782D+00
 Coeff:     -0.405D-05-0.809D-07 0.122D-04-0.320D-04-0.299D-05 0.110D-04
 Coeff:     -0.119D-02-0.639D-03 0.438D-02-0.465D-03-0.627D-01 0.840D-01
 Coeff:      0.259D+00-0.639D-01 0.782D+00
 Gap=     0.350 Goal=   None    Shift=    0.000
 RMSDP=9.15D-06 MaxDP=1.27D-04 DE= 3.98D-05 OVMax= 4.53D-05

 Cycle  37  Pass 1  IDiag  1:
 E= -1298.60349622377     Delta-E=        0.000000040644 Rises=F Damp=F
 DIIS: error= 2.06D-06 at cycle  37 NSaved=  16.
 NSaved=16 IEnMin=14 EnMin= -1298.60353603777     IErMin=16 ErrMin= 2.06D-06
 ErrMax= 2.06D-06  0.00D+00 EMaxC= 1.00D+00 BMatC= 1.14D-10 BMatP= 9.87D-09
 IDIUse=1 WtCom= 1.00D+00 WtEn= 0.00D+00
 Coeff-Com:  0.361D-06-0.557D-07-0.145D-05 0.751D-05-0.150D-04-0.824D-04
 Coeff-Com:  0.670D-04-0.961D-03 0.129D-02 0.257D-02-0.767D-02-0.651D-02
 Coeff-Com: -0.977D-02-0.118D-02 0.916D-01 0.931D+00
 Coeff:      0.361D-06-0.557D-07-0.145D-05 0.751D-05-0.150D-04-0.824D-04
 Coeff:      0.670D-04-0.961D-03 0.129D-02 0.257D-02-0.767D-02-0.651D-02
 Coeff:     -0.977D-02-0.118D-02 0.916D-01 0.931D+00
 Gap=     0.350 Goal=   None    Shift=    0.000
 RMSDP=1.17D-05 MaxDP=1.53D-04 DE= 4.06D-08 OVMax= 1.10D-05

 Cycle  38  Pass 1  IDiag  1:
 E= -1298.60349632701     Delta-E=       -0.000000103233 Rises=F Damp=F
 DIIS: error= 9.57D-06 at cycle  38 NSaved=  17.
 NSaved=17 IEnMin=14 EnMin= -1298.60353603777     IErMin=16 ErrMin= 2.06D-06
 ErrMax= 9.57D-06  0.00D+00 EMaxC= 1.00D+00 BMatC= 2.30D-09 BMatP= 1.14D-10
 IDIUse=1 WtCom= 1.00D+00 WtEn= 0.00D+00
 Coeff-Com:  0.963D-06-0.575D-07-0.336D-05 0.133D-04-0.178D-04-0.103D-03
 Coeff-Com:  0.228D-03-0.110D-02 0.104D-02 0.321D-02-0.163D-02-0.180D-01
 Coeff-Com: -0.442D-01 0.637D-02 0.165D-01 0.115D+01-0.112D+00
 Coeff:      0.963D-06-0.575D-07-0.336D-05 0.133D-04-0.178D-04-0.103D-03
 Coeff:      0.228D-03-0.110D-02 0.104D-02 0.321D-02-0.163D-02-0.180D-01
 Coeff:     -0.442D-01 0.637D-02 0.165D-01 0.115D+01-0.112D+00
 Gap=     0.350 Goal=   None    Shift=    0.000
 RMSDP=1.19D-05 MaxDP=1.56D-04 DE=-1.03D-07 OVMax= 2.63D-06

 Cycle  39  Pass 1  IDiag  1:
 E= -1298.60349622390     Delta-E=        0.000000103106 Rises=F Damp=F
 DIIS: error= 1.64D-06 at cycle  39 NSaved=  18.
 NSaved=18 IEnMin=14 EnMin= -1298.60353603777     IErMin=18 ErrMin= 1.64D-06
 ErrMax= 1.64D-06  0.00D+00 EMaxC= 1.00D+00 BMatC= 6.29D-11 BMatP= 1.14D-10
 IDIUse=1 WtCom= 1.00D+00 WtEn= 0.00D+00
 Coeff-Com: -0.951D-06 0.853D-07 0.365D-05-0.128D-04 0.124D-04 0.124D-03
 Coeff-Com: -0.173D-04 0.124D-02-0.177D-02-0.307D-02 0.110D-01-0.198D-02
 Coeff-Com: -0.269D-02 0.633D-02-0.156D+00-0.127D+01-0.874D-01 0.250D+01
 Coeff:     -0.951D-06 0.853D-07 0.365D-05-0.128D-04 0.124D-04 0.124D-03
 Coeff:     -0.173D-04 0.124D-02-0.177D-02-0.307D-02 0.110D-01-0.198D-02
 Coeff:     -0.269D-02 0.633D-02-0.156D+00-0.127D+01-0.874D-01 0.250D+01
 Gap=     0.350 Goal=   None    Shift=    0.000
 RMSDP=1.55D-06 MaxDP=1.48D-05 DE= 1.03D-07 OVMax= 2.30D-05

 Cycle  40  Pass 1  IDiag  1:
 E= -1298.60349622392     Delta-E=       -0.000000000021 Rises=F Damp=F
 DIIS: error= 7.82D-07 at cycle  40 NSaved=  19.
 NSaved=19 IEnMin=14 EnMin= -1298.60353603777     IErMin=19 ErrMin= 7.82D-07
 ErrMax= 7.82D-07  0.00D+00 EMaxC= 1.00D+00 BMatC= 2.85D-11 BMatP= 6.29D-11
 IDIUse=1 WtCom= 1.00D+00 WtEn= 0.00D+00
 Coeff-Com: -0.195D-07 0.784D-07-0.159D-06-0.170D-05 0.119D-04 0.363D-04
 Coeff-Com: -0.479D-04 0.612D-03-0.852D-03-0.170D-02 0.535D-02-0.311D-02
 Coeff-Com:  0.150D-01 0.157D-02-0.507D-01-0.503D+00 0.213D-01 0.323D+00
 Coeff-Com:  0.119D+01
 Coeff:     -0.195D-07 0.784D-07-0.159D-06-0.170D-05 0.119D-04 0.363D-04
 Coeff:     -0.479D-04 0.612D-03-0.852D-03-0.170D-02 0.535D-02-0.311D-02
 Coeff:      0.150D-01 0.157D-02-0.507D-01-0.503D+00 0.213D-01 0.323D+00
 Coeff:      0.119D+01
 Gap=     0.350 Goal=   None    Shift=    0.000
 RMSDP=1.12D-06 MaxDP=2.05D-05 DE=-2.07D-11 OVMax= 1.28D-05

 Cycle  41  Pass 1  IDiag  1:
 E= -1298.60349622708     Delta-E=       -0.000000003161 Rises=F Damp=F
 DIIS: error= 1.70D-06 at cycle  41 NSaved=  20.
 NSaved=20 IEnMin=14 EnMin= -1298.60353603777     IErMin=19 ErrMin= 7.82D-07
 ErrMax= 1.70D-06  0.00D+00 EMaxC= 1.00D+00 BMatC= 1.08D-10 BMatP= 2.85D-11
 IDIUse=1 WtCom= 1.00D+00 WtEn= 0.00D+00
 Coeff-Com:  0.254D-07 0.952D-07-0.429D-06-0.125D-05 0.141D-04 0.377D-04
 Coeff-Com: -0.564D-04 0.689D-03-0.960D-03-0.193D-02 0.590D-02-0.748D-03
 Coeff-Com:  0.155D-01 0.109D-02-0.530D-01-0.559D+00 0.318D-01 0.264D+00
 Coeff-Com:  0.151D+01-0.212D+00
 Coeff:      0.254D-07 0.952D-07-0.429D-06-0.125D-05 0.141D-04 0.377D-04
 Coeff:     -0.564D-04 0.689D-03-0.960D-03-0.193D-02 0.590D-02-0.748D-03
 Coeff:      0.155D-01 0.109D-02-0.530D-01-0.559D+00 0.318D-01 0.264D+00
 Coeff:      0.151D+01-0.212D+00
 Gap=     0.350 Goal=   None    Shift=    0.000
 RMSDP=5.24D-07 MaxDP=1.19D-05 DE=-3.16D-09 OVMax= 3.88D-07

 Cycle  42  Pass 1  IDiag  1:
 E= -1298.60349622519     Delta-E=        0.000000001890 Rises=F Damp=F
 DIIS: error= 1.14D-06 at cycle  42 NSaved=  20.
 NSaved=20 IEnMin=13 EnMin= -1298.60353603777     IErMin=18 ErrMin= 7.82D-07
 ErrMax= 1.14D-06  0.00D+00 EMaxC= 1.00D+00 BMatC= 6.29D-11 BMatP= 2.85D-11
 IDIUse=1 WtCom= 1.00D+00 WtEn= 0.00D+00
 Coeff-Com:  0.825D-07-0.287D-06-0.560D-06 0.750D-05 0.116D-04-0.405D-04
 Coeff-Com:  0.300D-03-0.397D-03-0.901D-03 0.283D-02-0.327D-02 0.152D-01
 Coeff-Com:  0.327D-03-0.184D-01-0.213D+00 0.302D-01-0.113D+00 0.891D+00
 Coeff-Com: -0.899D+00 0.131D+01
 Coeff:      0.825D-07-0.287D-06-0.560D-06 0.750D-05 0.116D-04-0.405D-04
 Coeff:      0.300D-03-0.397D-03-0.901D-03 0.283D-02-0.327D-02 0.152D-01
 Coeff:      0.327D-03-0.184D-01-0.213D+00 0.302D-01-0.113D+00 0.891D+00
 Coeff:     -0.899D+00 0.131D+01
 Gap=     0.350 Goal=   None    Shift=    0.000
 RMSDP=9.42D-07 MaxDP=2.12D-05 DE= 1.89D-09 OVMax= 3.05D-06

 Cycle  43  Pass 1  IDiag  1:
 E= -1298.60349622681     Delta-E=       -0.000000001618 Rises=F Damp=F
 DIIS: error= 1.63D-06 at cycle  43 NSaved=  20.
 NSaved=20 IEnMin=12 EnMin= -1298.60353603777     IErMin=17 ErrMin= 7.82D-07
 ErrMax= 1.63D-06  0.00D+00 EMaxC= 1.00D+00 BMatC= 9.58D-11 BMatP= 2.85D-11
 IDIUse=1 WtCom= 1.00D+00 WtEn= 0.00D+00
 Coeff-Com: -0.106D-07-0.532D-06 0.488D-05-0.957D-05-0.828D-04 0.733D-04
 Coeff-Com:  0.433D-04-0.406D-03-0.223D-03 0.428D-02 0.174D-01-0.320D-02
 Coeff-Com:  0.221D-01 0.144D-01 0.576D-01-0.696D+00 0.921D+00-0.256D+01
 Coeff-Com:  0.409D+01-0.870D+00
 Coeff:     -0.106D-07-0.532D-06 0.488D-05-0.957D-05-0.828D-04 0.733D-04
 Coeff:      0.433D-04-0.406D-03-0.223D-03 0.428D-02 0.174D-01-0.320D-02
 Coeff:      0.221D-01 0.144D-01 0.576D-01-0.696D+00 0.921D+00-0.256D+01
 Coeff:      0.409D+01-0.870D+00
 Gap=     0.350 Goal=   None    Shift=    0.000
 RMSDP=1.23D-06 MaxDP=2.41D-05 DE=-1.62D-09 OVMax= 3.04D-06

 Cycle  44  Pass 1  IDiag  1:
 E= -1298.60349622383     Delta-E=        0.000000002984 Rises=F Damp=F
 DIIS: error= 2.70D-07 at cycle  44 NSaved=  20.
 NSaved=20 IEnMin=11 EnMin= -1298.60353603777     IErMin=20 ErrMin= 2.70D-07
 ErrMax= 2.70D-07  0.00D+00 EMaxC= 1.00D+00 BMatC= 4.79D-12 BMatP= 2.85D-11
 IDIUse=1 WtCom= 1.00D+00 WtEn= 0.00D+00
 Coeff-Com: -0.395D-06 0.172D-05 0.266D-05-0.277D-04 0.427D-04-0.249D-04
 Coeff-Com: -0.173D-03 0.208D-03-0.153D-03 0.495D-02-0.500D-03 0.268D-02
 Coeff-Com:  0.604D-02 0.149D-01-0.173D+00 0.165D+00-0.797D+00 0.129D+01
 Coeff-Com: -0.348D+00 0.833D+00
 Coeff:     -0.395D-06 0.172D-05 0.266D-05-0.277D-04 0.427D-04-0.249D-04
 Coeff:     -0.173D-03 0.208D-03-0.153D-03 0.495D-02-0.500D-03 0.268D-02
 Coeff:      0.604D-02 0.149D-01-0.173D+00 0.165D+00-0.797D+00 0.129D+01
 Coeff:     -0.348D+00 0.833D+00
 Gap=     0.350 Goal=   None    Shift=    0.000
 RMSDP=8.21D-07 MaxDP=8.86D-06 DE= 2.98D-09 OVMax= 1.12D-06

 Cycle  45  Pass 1  IDiag  1:
 E= -1298.60349622434     Delta-E=       -0.000000000518 Rises=F Damp=F
 DIIS: error= 6.99D-07 at cycle  45 NSaved=  20.
 NSaved=20 IEnMin=10 EnMin= -1298.60353603777     IErMin=19 ErrMin= 2.70D-07
 ErrMax= 6.99D-07  0.00D+00 EMaxC= 1.00D+00 BMatC= 1.51D-11 BMatP= 4.79D-12
 IDIUse=1 WtCom= 1.00D+00 WtEn= 0.00D+00
 Coeff-Com:  0.110D-06 0.290D-05-0.287D-05 0.210D-05-0.257D-04-0.206D-04
 Coeff-Com:  0.290D-03-0.141D-02-0.106D-03 0.332D-03-0.238D-02 0.264D-01
 Coeff-Com:  0.226D-02-0.488D-01-0.765D-01-0.343D+00 0.581D+00-0.244D+00
 Coeff-Com:  0.137D+01-0.260D+00
 Coeff:      0.110D-06 0.290D-05-0.287D-05 0.210D-05-0.257D-04-0.206D-04
 Coeff:      0.290D-03-0.141D-02-0.106D-03 0.332D-03-0.238D-02 0.264D-01
 Coeff:      0.226D-02-0.488D-01-0.765D-01-0.343D+00 0.581D+00-0.244D+00
 Coeff:      0.137D+01-0.260D+00
 Gap=     0.350 Goal=   None    Shift=    0.000
 RMSDP=1.56D-06 MaxDP=2.02D-05 DE=-5.18D-10 OVMax= 3.69D-07

 Cycle  46  Pass 1  IDiag  1:
 E= -1298.60349622426     Delta-E=        0.000000000088 Rises=F Damp=F
 DIIS: error= 5.68D-07 at cycle  46 NSaved=  20.
 NSaved=20 IEnMin= 9 EnMin= -1298.60353603777     IErMin=18 ErrMin= 2.70D-07
 ErrMax= 5.68D-07  0.00D+00 EMaxC= 1.00D+00 BMatC= 1.22D-11 BMatP= 4.79D-12
 IDIUse=1 WtCom= 1.00D+00 WtEn= 0.00D+00
 Coeff-Com:  0.951D-05 0.944D-05 0.303D-04-0.987D-04-0.548D-04 0.702D-03
 Coeff-Com: -0.170D-02-0.436D-02 0.918D-03-0.902D-02 0.205D-01-0.922D-02
 Coeff-Com:  0.880D-01-0.317D+00-0.255D-01 0.851D-01-0.229D+00 0.236D+01
 Coeff-Com: -0.619D+00-0.336D+00
 Coeff:      0.951D-05 0.944D-05 0.303D-04-0.987D-04-0.548D-04 0.702D-03
 Coeff:     -0.170D-02-0.436D-02 0.918D-03-0.902D-02 0.205D-01-0.922D-02
 Coeff:      0.880D-01-0.317D+00-0.255D-01 0.851D-01-0.229D+00 0.236D+01
 Coeff:     -0.619D+00-0.336D+00
 Gap=     0.350 Goal=   None    Shift=    0.000
 RMSDP=9.12D-07 MaxDP=9.93D-06 DE= 8.84D-11 OVMax= 3.49D-07

 Cycle  47  Pass 1  IDiag  1:
 E= -1298.60349622372     Delta-E=        0.000000000533 Rises=F Damp=F
 DIIS: error= 5.94D-08 at cycle  47 NSaved=  20.
 NSaved=20 IEnMin= 8 EnMin= -1298.60353603777     IErMin=20 ErrMin= 5.94D-08
 ErrMax= 5.94D-08  0.00D+00 EMaxC= 1.00D+00 BMatC= 8.17D-14 BMatP= 4.79D-12
 IDIUse=1 WtCom= 1.00D+00 WtEn= 0.00D+00
 Coeff-Com:  0.144D-05-0.438D-05 0.891D-06 0.159D-04-0.175D-04-0.119D-03
 Coeff-Com: -0.234D-03 0.916D-04 0.659D-03 0.653D-02-0.221D-02 0.203D-01
 Coeff-Com: -0.324D-01 0.144D+00-0.227D+00 0.712D-01-0.234D+00 0.235D-01
 Coeff-Com: -0.415D-01 0.127D+01
 Coeff:      0.144D-05-0.438D-05 0.891D-06 0.159D-04-0.175D-04-0.119D-03
 Coeff:     -0.234D-03 0.916D-04 0.659D-03 0.653D-02-0.221D-02 0.203D-01
 Coeff:     -0.324D-01 0.144D+00-0.227D+00 0.712D-01-0.234D+00 0.235D-01
 Coeff:     -0.415D-01 0.127D+01
 Gap=     0.350 Goal=   None    Shift=    0.000
 RMSDP=6.99D-08 MaxDP=9.55D-07 DE= 5.33D-10 OVMax= 3.59D-07

 Cycle  48  Pass 1  IDiag  1:
 E= -1298.60349622372     Delta-E=        0.000000000003 Rises=F Damp=F
 DIIS: error= 6.47D-09 at cycle  48 NSaved=  20.
 NSaved=20 IEnMin= 7 EnMin= -1298.60353603777     IErMin=20 ErrMin= 6.47D-09
 ErrMax= 6.47D-09  0.00D+00 EMaxC= 1.00D+00 BMatC= 1.67D-15 BMatP= 8.17D-14
 IDIUse=1 WtCom= 1.00D+00 WtEn= 0.00D+00
 Large coefficients: NSaved= 20 BigCof=    0.00 CofMax=   10.00 Det=-3.21D-15
 Inversion failed.  Reducing to 19 matrices.
 Large coefficients: NSaved= 19 BigCof=    0.00 CofMax=   10.00 Det=-3.82D-15
 Inversion failed.  Reducing to 18 matrices.
 Large coefficients: NSaved= 18 BigCof=    0.00 CofMax=   10.00 Det=-3.89D-15
 Inversion failed.  Reducing to 17 matrices.
 Large coefficients: NSaved= 17 BigCof=    0.00 CofMax=   10.00 Det=-3.91D-15
 Inversion failed.  Reducing to 16 matrices.
 Large coefficients: NSaved= 16 BigCof=    0.00 CofMax=   10.00 Det=-4.30D-15
 Inversion failed.  Reducing to 15 matrices.
 Coeff-Com:  0.803D-04-0.123D-04 0.183D-03 0.509D-04 0.491D-03-0.142D-02
 Coeff-Com:  0.130D-02 0.214D-02-0.363D-02 0.183D-02-0.823D-02 0.261D-02
 Coeff-Com:  0.207D-02-0.227D-01 0.103D+01
 Coeff:      0.803D-04-0.123D-04 0.183D-03 0.509D-04 0.491D-03-0.142D-02
 Coeff:      0.130D-02 0.214D-02-0.363D-02 0.183D-02-0.823D-02 0.261D-02
 Coeff:      0.207D-02-0.227D-01 0.103D+01
 Gap=     0.350 Goal=   None    Shift=    0.000
 RMSDP=1.14D-08 MaxDP=1.82D-07 DE= 3.41D-12 OVMax= 2.04D-08

 Cycle  49  Pass 1  IDiag  1:
 E= -1298.60349622372     Delta-E=       -0.000000000002 Rises=F Damp=F
 DIIS: error= 1.76D-08 at cycle  49 NSaved=  16.
 NSaved=16 IEnMin= 2 EnMin= -1298.60353603777     IErMin=15 ErrMin= 6.47D-09
 ErrMax= 1.76D-08  0.00D+00 EMaxC= 1.00D+00 BMatC= 9.32D-15 BMatP= 1.67D-15
 IDIUse=1 WtCom= 1.00D+00 WtEn= 0.00D+00
 Large coefficients: NSaved= 16 BigCof=    0.00 CofMax=   10.00 Det=-1.45D-15
 Inversion failed.  Reducing to 15 matrices.
 Coeff-Com:  0.949D-04-0.928D-05 0.232D-03 0.187D-03 0.264D-03-0.106D-02
 Coeff-Com:  0.114D-02 0.623D-02-0.990D-02 0.450D-02-0.190D-01 0.478D-02
 Coeff-Com:  0.223D-02 0.130D+01-0.287D+00
 Coeff:      0.949D-04-0.928D-05 0.232D-03 0.187D-03 0.264D-03-0.106D-02
 Coeff:      0.114D-02 0.623D-02-0.990D-02 0.450D-02-0.190D-01 0.478D-02
 Coeff:      0.223D-02 0.130D+01-0.287D+00
 Gap=     0.350 Goal=   None    Shift=    0.000
 RMSDP=8.42D-09 MaxDP=1.45D-07 DE=-1.59D-12 OVMax= 1.08D-08

 SCF Done:  E(ROHF) =  -1298.60349622     A.U. after   49 cycles
            NFock= 49  Conv=0.84D-08     -V/T= 1.9999
 <Sx>= 0.0000 <Sy>= 0.0000 <Sz>= 1.5000 <S**2>= 3.7500 S= 1.5000
 <L.S>= 0.000000000000E+00
 KE= 1.298691814046D+03 PE=-3.340635485675D+03 EE= 6.191342110745D+02
 Annihilation of the first spin contaminant:
 S**2 before annihilation     3.7500,   after     3.7500
 Leave Link  502 at Tue Sep 22 13:39:29 2015, MaxMem=    33554432 cpu:               0.3 elap:               0.3
 (Enter /home/gauss/gdvi01p/gdv/l601.exe)
 Copying SCF densities to generalized density rwf, IOpCl= 0 IROHF=1.

 **********************************************************************

            Population analysis using the SCF density.

 **********************************************************************

 Alpha  occ. eigenvalues -- -240.41967 -29.00503 -24.73552 -24.69970 -24.69970
 Alpha  occ. eigenvalues --  -20.71040 -20.71037  -3.69570  -2.40139  -2.34955
 Alpha  occ. eigenvalues --   -2.34955  -1.26618  -1.24977  -0.49938  -0.42570
 Alpha  occ. eigenvalues --   -0.42570  -0.32703  -0.32703  -0.28669  -0.26844
 Alpha  occ. eigenvalues --   -0.26844  -0.26768
 Alpha virt. eigenvalues --    0.08236   0.08236   0.09600   0.12353   0.31625
 Alpha virt. eigenvalues --    0.31625   0.34607   0.47491   0.47491   0.76945
 Alpha virt. eigenvalues --    1.06582   1.10507   1.10507   1.17680   1.19392
 Alpha virt. eigenvalues --    1.19392   1.24994   1.52423   1.78255   1.78255
 Alpha virt. eigenvalues --    1.93166   1.93166   2.09379   2.23236  17.07924
          Condensed to atoms (all electrons):
               1          2          3
     1  Mn  24.311631   0.059762   0.059762
     2  O    0.059762   8.224617   0.000043
     3  O    0.059762   0.000043   8.224617
          Atomic-Atomic Spin Densities.
               1          2          3
     1  Mn   0.034217   0.004993   0.004993
     2  O    0.004993   1.474500  -0.001594
     3  O    0.004993  -0.001594   1.474500
 Mulliken charges and spin densities:
               1          2
     1  Mn   0.568845   0.044203
     2  O   -0.284422   1.477899
     3  O   -0.284422   1.477899
 Sum of Mulliken charges =   0.00000   3.00000
 Mulliken charges and spin densities with hydrogens summed into heavy atoms:
               1          2
     1  Mn   0.568845   0.044203
     2  O   -0.284422   1.477899
     3  O   -0.284422   1.477899
 Electronic spatial extent (au):  <R**2>=            251.2431
 Charge=              0.0000 electrons
 Dipole moment (field-independent basis, Debye):
    X=              0.0000    Y=              0.0000    Z=              0.0000  Tot=              0.0000
 Quadrupole moment (field-independent basis, Debye-Ang):
   XX=            -24.4065   YY=            -24.4065   ZZ=            -28.7807
   XY=              0.0000   XZ=              0.0000   YZ=              0.0000
 Traceless Quadrupole moment (field-independent basis, Debye-Ang):
   XX=              1.4581   YY=              1.4581   ZZ=             -2.9161
   XY=              0.0000   XZ=              0.0000   YZ=              0.0000
 Octapole moment (field-independent basis, Debye-Ang**2):
  XXX=              0.0000  YYY=              0.0000  ZZZ=              0.0000  XYY=              0.0000
  XXY=              0.0000  XXZ=              0.0000  XZZ=              0.0000  YZZ=              0.0000
  YYZ=              0.0000  XYZ=              0.0000
 Hexadecapole moment (field-independent basis, Debye-Ang**3):
 XXXX=            -25.2490 YYYY=            -25.2490 ZZZZ=           -259.4245 XXXY=              0.0000
 XXXZ=              0.0000 YYYX=              0.0000 YYYZ=              0.0000 ZZZX=              0.0000
 ZZZY=              0.0000 XXYY=             -8.4163 XXZZ=            -44.1934 YYZZ=            -44.1934
 XXYZ=              0.0000 YYXZ=              0.0000 ZZXY=              0.0000
 N-N= 1.242059643306D+02 E-N=-3.340635485638D+03  KE= 1.298691814046D+03
                          Isotropic Fermi Contact Couplings
        Atom                 a.u.       MegaHertz       Gauss      10(-4) cm-1
     1  Mn(55)             0.00000       0.00000       0.00000       0.00000
     2  O(17)              0.02217      -4.48062      -1.59880      -1.49457
     3  O(17)              0.02217      -4.48062      -1.59880      -1.49457
 --------------------------------------------------------
       Center         ----  Spin Dipole Couplings  ----
                      3XX-RR        3YY-RR        3ZZ-RR
 --------------------------------------------------------
     1   Atom       -0.426284     -0.426284      0.852567
     2   Atom       -0.010586     -0.010586      0.021172
     3   Atom       -0.010586     -0.010586      0.021172
 --------------------------------------------------------
                        XY            XZ            YZ
 --------------------------------------------------------
     1   Atom        0.000000      0.000000      0.000000
     2   Atom        0.000000      0.000002      0.000001
     3   Atom        0.000000     -0.000002     -0.000001
 --------------------------------------------------------


 ---------------------------------------------------------------------------------
              Anisotropic Spin Dipole Couplings in Principal Axis System
 ---------------------------------------------------------------------------------

       Atom             a.u.   MegaHertz   Gauss  10(-4) cm-1        Axes

              Baa    -0.4263   -56.245   -20.069   -18.761  0.8890  0.4580  0.0000
     1 Mn(55) Bbb    -0.4263   -56.245   -20.069   -18.761 -0.4580  0.8890  0.0000
              Bcc     0.8526   112.489    40.139    37.522  0.0000  0.0000  1.0000
 
              Baa    -0.0106     0.766     0.273     0.256  0.9869  0.1616 -0.0001
     2 O(17)  Bbb    -0.0106     0.766     0.273     0.256 -0.1616  0.9869  0.0000
              Bcc     0.0212    -1.532    -0.547    -0.511  0.0001  0.0000  1.0000
 
              Baa    -0.0106     0.766     0.273     0.256 -0.1812  0.9834  0.0000
     3 O(17)  Bbb    -0.0106     0.766     0.273     0.256  0.9834  0.1812  0.0001
              Bcc     0.0212    -1.532    -0.547    -0.511 -0.0001  0.0000  1.0000
 

 ---------------------------------------------------------------------------------

 No NMR shielding tensors so no spin-rotation constants.
 Leave Link  601 at Tue Sep 22 13:39:29 2015, MaxMem=    33554432 cpu:               0.2 elap:               0.2
 (Enter /home/gauss/gdvi01p/gdv/l9999.exe)
 Unable to Open any file for archive entry.
 1\1\GINC-MEDUSA\SP\ROHF\6-31G\Mn1O2(4)\DBWY\22-Sep-2015\0\\#p rohf/6-3
 1G nosymm\\MnO2 6-31G\\0,4\Mn,0,0.,0.,0.\O,0,0.,0.,1.840528\O,0,0.,0.,
 -1.840528\\Version=ES64L-GDVRevI.01+\HF=-1298.6034962\RMSD=8.416e-09\D
 ipole=0.0000001,0.,0.0000008\Quadrupole=1.0840402,1.0840402,-2.1680804
 ,0.,0.,0.\PG=D*H [O(Mn1),C*(O1.O1)]\\@
 The archive entry for this job was punched.


 There are more things in heaven and earth, Horatio,
 than are dreamt of in your philosophy.
                   -- Hamlet, Act I, Scene 5
 Job cpu time:       0 days  0 hours  0 minutes  1.3 seconds.
 Elapsed time:       0 days  0 hours  0 minutes  1.2 seconds.
 File lengths (MBytes):  RWF=      5 Int=      0 D2E=      0 Chk=      1 Scr=      1
 Normal termination of Gaussian DV at Tue Sep 22 13:39:29 2015.
