 Entering Gaussian System, Link 0=gdv
 Input=MnO2_3-21G_ROHF.com
 Output=MnO2_3-21G_ROHF.log
 Initial command:
 /home/gauss/gdvi01p/gdv/l1.exe "/home/GauScr/Gau-32720.inp" -scrdir="/home/GauScr/"
 Entering Link 1 = /home/gauss/gdvi01p/gdv/l1.exe PID=     32721.
  
 Copyright (c) 1988,1990,1992,1993,1995,1998,2003,2009,2014,
            Gaussian, Inc.  All Rights Reserved.
  
 This is the private, development version of
 the Gaussian(R) DV system of programs. It is based on
 the Gaussian(R) 09 system (copyright 2009, Gaussian, Inc.),
 the Gaussian(R) 03 system (copyright 2003, Gaussian, Inc.),
 the Gaussian(R) 98 system (copyright 1998, Gaussian, Inc.),
 the Gaussian(R) 94 system (copyright 1995, Gaussian, Inc.),
 the Gaussian 92(TM) system (copyright 1992, Gaussian, Inc.),
 the Gaussian 90(TM) system (copyright 1990, Gaussian, Inc.),
 the Gaussian 88(TM) system (copyright 1988, Gaussian, Inc.),
 the Gaussian 86(TM) system (copyright 1986, Carnegie Mellon
 University), and the Gaussian 82(TM) system (copyright 1983,
 Carnegie Mellon University). Gaussian is a federally registered
 trademark of Gaussian, Inc.
  
 This software contains proprietary and confidential information,
 including trade secrets, belonging to Gaussian, Inc.
  
 This software is provided under written license and may be
 used, copied, transmitted, or stored only in accord with that
 written license.
  
 The following legend is applicable only to US Government
 contracts under FAR:
  
                    RESTRICTED RIGHTS LEGEND
  
 Use, reproduction and disclosure by the US Government is
 subject to restrictions as set forth in subparagraphs (a)
 and (c) of the Commercial Computer Software - Restricted
 Rights clause in FAR 52.227-19.
  
 Gaussian, Inc.
 340 Quinnipiac St., Bldg. 40, Wallingford CT 06492
  
  
 ---------------------------------------------------------------
 Warning -- This program may not be used in any manner that
 competes with the business of Gaussian, Inc. or will provide
 assistance to any competitor of Gaussian, Inc.  The licensee
 of this program is prohibited from giving any competitor of
 Gaussian, Inc. access to this program.  By using this program,
 the user acknowledges that Gaussian, Inc. is engaged in the
 business of creating and licensing software in the field of
 computational chemistry and represents and warrants to the
 licensee that it is not a competitor of Gaussian, Inc. and that
 it will not use this program in any manner prohibited above.
 ---------------------------------------------------------------
  

 Cite this work as:
 Gaussian Development Version, Revision I.01+,
 M. J. Frisch, G. W. Trucks, H. B. Schlegel, G. E. Scuseria, 
 M. A. Robb, J. R. Cheeseman, G. Scalmani, V. Barone, B. Mennucci, 
 G. A. Petersson, H. Nakatsuji, M. Caricato, X. Li, H. P. Hratchian, 
 A. F. Izmaylov, J. Bloino, B. G. Janesko, F. Lipparini, G. Zheng, 
 J. L. Sonnenberg, W. Liang, M. Hada, M. Ehara, K. Toyota, R. Fukuda, 
 J. Hasegawa, M. Ishida, T. Nakajima, Y. Honda, O. Kitao, H. Nakai, 
 T. Vreven, J. A. Montgomery, Jr., J. E. Peralta, F. Ogliaro, 
 M. Bearpark, J. J. Heyd, E. Brothers, K. N. Kudin, V. N. Staroverov, 
 T. Keith, R. Kobayashi, J. Normand, K. Raghavachari, A. Rendell, 
 J. C. Burant, S. S. Iyengar, J. Tomasi, M. Cossi, N. Rega, 
 J. M. Millam, M. Klene, J. E. Knox, J. B. Cross, V. Bakken, 
 C. Adamo, J. Jaramillo, R. Gomperts, R. E. Stratmann, O. Yazyev, 
 A. J. Austin, R. Cammi, C. Pomelli, J. W. Ochterski, R. L. Martin, 
 K. Morokuma, V. G. Zakrzewski, G. A. Voth, P. Salvador, 
 J. J. Dannenberg, S. Dapprich, P. V. Parandekar, N. J. Mayhall, 
 A. D. Daniels, O. Farkas, J. B. Foresman, J. V. Ortiz, 
 J. Cioslowski, and D. J. Fox, Gaussian, Inc., Wallingford CT, 2010.
 
 *******************************************
 Gaussian DV:  ES64L-GDVRevI.01+ 11-Sep-2014
                 22-Sep-2015 
 *******************************************
 --------------------
 #p rohf/3-21G nosymm
 --------------------
 1/38=1,172=1/1;
 2/12=2,15=1,17=6,18=5,40=1/2;
 3/5=5,11=2,25=1,30=1,116=101/1,2,3;
 4//1;
 5/5=2,38=5/2;
 6/7=2,8=2,9=2,10=2,28=1/1;
 99/5=1,9=1/99;
 Leave Link    1 at Tue Sep 22 13:39:25 2015, MaxMem=           0 cpu:               0.0 elap:               0.0
 (Enter /home/gauss/gdvi01p/gdv/l101.exe)
 ----------
 MnO2 3-21G
 ----------
 Symbolic Z-matrix:
 Charge =  0 Multiplicity = 4
 Mn                    0.        0.        0. 
 O                     0.        0.        1.84053 
 O                     0.        0.       -1.84053 
 
 ITRead=  0  0  0
 MicOpt= -1 -1 -1
 NAtoms=      3 NQM=        3 NQMF=       0 NMMI=      0 NMMIF=      0
                NMic=       0 NMicF=      0.
                    Isotopes and Nuclear Properties:
 (Nuclear quadrupole moments (NQMom) in fm**2, nuclear magnetic moments (NMagM)
  in nuclear magnetons)

  Atom         1           2           3
 IAtWgt=          55          16          16
 AtmWgt=  54.9380463  15.9949146  15.9949146
 NucSpn=           5           0           0
 AtZEff=   0.0000000   0.0000000   0.0000000
 NQMom=   33.0000000   0.0000000   0.0000000
 NMagM=    3.4532000   0.0000000   0.0000000
 AtZNuc=  25.0000000   8.0000000   8.0000000
 Leave Link  101 at Tue Sep 22 13:39:25 2015, MaxMem=    33554432 cpu:               0.1 elap:               0.1
 (Enter /home/gauss/gdvi01p/gdv/l202.exe)
                          Input orientation:                          
 ---------------------------------------------------------------------
 Center     Atomic      Atomic             Coordinates (Angstroms)
 Number     Number       Type             X           Y           Z
 ---------------------------------------------------------------------
      1         25           0        0.000000    0.000000    0.000000
      2          8           0        0.000000    0.000000    1.840528
      3          8           0        0.000000    0.000000   -1.840528
 ---------------------------------------------------------------------
                    Distance matrix (angstroms):
                    1          2          3
     1  Mn   0.000000
     2  O    1.840528   0.000000
     3  O    1.840528   3.681056   0.000000
 Symmetry turned off by external request.
 Stoichiometry    MnO2(4)
 Framework group  D*H[O(Mn),C*(O.O)]
 Deg. of freedom     1
 Full point group                 D*H     NOp   8
 Rotational constants (GHZ):      0.0000000      4.6635906      4.6635906
 Leave Link  202 at Tue Sep 22 13:39:25 2015, MaxMem=    33554432 cpu:               0.0 elap:               0.0
 (Enter /home/gauss/gdvi01p/gdv/l301.exe)
 Standard basis: 3-21G (6D, 7F)
 Ernie: Thresh=  0.10000D-02 Tol=  0.10000D-05 Strict=F.
    47 basis functions,    87 primitive gaussians,    47 cartesian basis functions
    22 alpha electrons       19 beta electrons
       nuclear repulsion energy       124.2059643306 Hartrees.
 IExCor=    0 DFT=F Ex=HF Corr=None ExCW=0 ScaHFX=  1.000000
 ScaDFX=  1.000000  1.000000  1.000000  1.000000 ScalE2=  1.000000  1.000000
 IRadAn=      0 IRanWt=     -1 IRanGd=            0 ICorTp=0 IEmpDi=  4
 NAtoms=    3 NActive=    3 NUniq=    3 SFac= 1.00D+00 NAtFMM=   60 NAOKFM=F Big=F
 Integral buffers will be    131072 words long.
 Raffenetti 2 integral format.
 Two-electron integral symmetry is turned off.
 Leave Link  301 at Tue Sep 22 13:39:25 2015, MaxMem=    33554432 cpu:               0.0 elap:               0.1
 (Enter /home/gauss/gdvi01p/gdv/l302.exe)
 NPDir=0 NMtPBC=     1 NCelOv=     1 NCel=       1 NClECP=     1 NCelD=      1
         NCelK=      1 NCelE2=     1 NClLst=     1 CellRange=     0.0.
 One-electron integrals computed using PRISM.
 One-electron integral symmetry used in STVInt
 NBasis=    47 RedAO= T EigKep=  4.42D-03  NBF=    47
 NBsUse=    47 1.00D-06 EigRej= -1.00D+00 NBFU=    47
 Leave Link  302 at Tue Sep 22 13:39:25 2015, MaxMem=    33554432 cpu:               0.1 elap:               0.1
 (Enter /home/gauss/gdvi01p/gdv/l303.exe)
 DipDrv:  MaxL=1.
 Leave Link  303 at Tue Sep 22 13:39:26 2015, MaxMem=    33554432 cpu:               0.0 elap:               0.0
 (Enter /home/gauss/gdvi01p/gdv/l401.exe)
 ExpMin= 3.33D-02 ExpMax= 3.04D+03 ExpMxC= 3.04D+03 IAcc=3 IRadAn=         5 AccDes= 0.00D+00
 Harris functional with IExCor=  205 and IRadAn=       5 diagonalized for initial guess.
 HarFok:  IExCor=  205 AccDes= 0.00D+00 IRadAn=         5 IDoV= 1 UseB2=F ITyADJ=14
 ICtDFT=  3500011 ScaDFX=  1.000000  1.000000  1.000000  1.000000
 FoFCou: FMM=F IPFlag=           0 FMFlag=      100000 FMFlg1=           0
         NFxFlg=           0 DoJE=T BraDBF=F KetDBF=T FulRan=T
         wScrn=  0.000000 ICntrl=       500 IOpCl=  0 I1Cent=   200000004 NGrid=           0
         NMat0=    1 NMatS0=      1 NMatT0=    0 NMatD0=    1 NMtDS0=    0 NMtDT0=    0
 Symmetry not used in FoFCou.
 Harris En= -1292.63885149669    
 JPrj=0 DoOrth=F DoCkMO=F.
 Leave Link  401 at Tue Sep 22 13:39:26 2015, MaxMem=    33554432 cpu:               0.3 elap:               0.3
 (Enter /home/gauss/gdvi01p/gdv/l502.exe)
 Keep R1 and R2 ints in memory in canonical form, NReq=2101006.
 FoFCou: FMM=F IPFlag=           0 FMFlag=           0 FMFlg1=           0
         NFxFlg=           0 DoJE=F BraDBF=F KetDBF=F FulRan=T
         wScrn=  0.000000 ICntrl=       600 IOpCl=  0 I1Cent=           0 NGrid=           0
         NMat0=    1 NMatS0=   1128 NMatT0=    0 NMatD0=    1 NMtDS0=    0 NMtDT0=    0
 Symmetry not used in FoFCou.
 Two-electron integral symmetry not used.
 Restricted open shell SCF:
 Using DIIS extrapolation, IDIIS=  1040.
 NGot=    33554432 LenX=    32275732 LenY=    32273082
 Requested convergence on RMS density matrix=1.00D-08 within 128 cycles.
 Requested convergence on MAX density matrix=1.00D-06.
 Requested convergence on             energy=1.00D-06.
 No special actions if energy rises.

 Cycle   1  Pass 1  IDiag  1:
 E= -1291.47226822033    
 DIIS: error= 2.17D-01 at cycle   1 NSaved=   1.
 NSaved= 1 IEnMin= 1 EnMin= -1291.47226822033     IErMin= 1 ErrMin= 2.17D-01
 ErrMax= 2.17D-01  0.00D+00 EMaxC= 1.00D-01 BMatC= 1.95D+00 BMatP= 1.95D+00
 IDIUse=3 WtCom= 0.00D+00 WtEn= 1.00D+00
 Coeff-Com:  0.100D+01
 Coeff-En:   0.100D+01
 Coeff:      0.100D+01
 Gap=     0.042 Goal=   None    Shift=    0.000
 GapD=    0.042 DampG=0.250 DampE=0.125 DampFc=0.1250 IDamp=-1.
 Damping current iteration by 1.25D-01
 RMSDP=5.33D-02 MaxDP=6.34D-01              OVMax= 9.05D-01

 Cycle   2  Pass 1  IDiag  1:
 E= -1291.87381922390     Delta-E=       -0.401551003574 Rises=F Damp=T
 DIIS: error= 9.54D-02 at cycle   2 NSaved=   2.
 NSaved= 2 IEnMin= 2 EnMin= -1291.87381922390     IErMin= 2 ErrMin= 9.54D-02
 ErrMax= 9.54D-02  0.00D+00 EMaxC= 1.00D-01 BMatC= 4.57D-01 BMatP= 1.95D+00
 IDIUse=3 WtCom= 4.56D-02 WtEn= 9.54D-01
 Coeff-Com: -0.511D+00 0.151D+01
 Coeff-En:   0.000D+00 0.100D+01
 Coeff:     -0.233D-01 0.102D+01
 Gap=     0.009 Goal=   None    Shift=    0.000
 RMSDP=3.47D-02 MaxDP=5.06D-01 DE=-4.02D-01 OVMax= 3.48D-01

 Cycle   3  Pass 1  IDiag  1:
 E= -1286.00752322228     Delta-E=        5.866296001622 Rises=F Damp=F
 DIIS: error= 6.23D-01 at cycle   3 NSaved=   3.
 NSaved= 3 IEnMin= 2 EnMin= -1291.87381922390     IErMin= 2 ErrMin= 9.54D-02
 ErrMax= 6.23D-01  0.00D+00 EMaxC= 1.00D-01 BMatC= 9.28D+00 BMatP= 4.57D-01
 IDIUse=2 WtCom= 0.00D+00 WtEn= 1.00D+00
 Rare condition: small coef for last iteration:  0.000D+00
 Coeff-En:   0.882D+00 0.000D+00 0.118D+00
 Coeff:      0.882D+00 0.000D+00 0.118D+00
 Gap=     0.065 Goal=   None    Shift=    0.000
 RMSDP=1.47D-02 MaxDP=1.63D-01 DE= 5.87D+00 OVMax= 2.28D-01

 Cycle   4  Pass 1  IDiag  1:
 E= -1282.24090954413     Delta-E=        3.766613678153 Rises=F Damp=F
 DIIS: error= 6.44D-01 at cycle   4 NSaved=   4.
 NSaved= 4 IEnMin= 2 EnMin= -1291.87381922390     IErMin= 2 ErrMin= 9.54D-02
 ErrMax= 6.44D-01  0.00D+00 EMaxC= 1.00D-01 BMatC= 1.42D+01 BMatP= 4.57D-01
 IDIUse=2 WtCom= 0.00D+00 WtEn= 1.00D+00
 Rare condition: small coef for last iteration:  0.000D+00
 Coeff-En:   0.924D+00 0.000D+00 0.000D+00 0.763D-01
 Coeff:      0.924D+00 0.000D+00 0.000D+00 0.763D-01
 Gap=     0.081 Goal=   None    Shift=    0.000
 RMSDP=3.82D-03 MaxDP=5.44D-02 DE= 3.77D+00 OVMax= 6.27D-02

 Cycle   5  Pass 1  IDiag  1:
 E= -1280.98232209655     Delta-E=        1.258587447579 Rises=F Damp=F
 DIIS: error= 6.86D-01 at cycle   5 NSaved=   5.
 NSaved= 5 IEnMin= 2 EnMin= -1291.87381922390     IErMin= 2 ErrMin= 9.54D-02
 ErrMax= 6.86D-01  0.00D+00 EMaxC= 1.00D-01 BMatC= 1.55D+01 BMatP= 4.57D-01
 IDIUse=2 WtCom= 0.00D+00 WtEn= 1.00D+00
 EnCoef did   100 forward-backward iterations
 Rare condition: small coef for last iteration:  0.000D+00
 Coeff-En:   0.933D+00 0.000D+00 0.000D+00 0.000D+00 0.670D-01
 Coeff:      0.933D+00 0.000D+00 0.000D+00 0.000D+00 0.670D-01
 Gap=     0.083 Goal=   None    Shift=    0.000
 RMSDP=9.42D-04 MaxDP=1.29D-02 DE= 1.26D+00 OVMax= 1.40D-02

 Cycle   6  Pass 1  IDiag  1:
 E= -1280.66365549296     Delta-E=        0.318666603585 Rises=F Damp=F
 DIIS: error= 6.97D-01 at cycle   6 NSaved=   6.
 NSaved= 6 IEnMin= 2 EnMin= -1291.87381922390     IErMin= 2 ErrMin= 9.54D-02
 ErrMax= 6.97D-01  0.00D+00 EMaxC= 1.00D-01 BMatC= 1.59D+01 BMatP= 4.57D-01
 IDIUse=2 WtCom= 0.00D+00 WtEn= 1.00D+00
 EnCoef did   100 forward-backward iterations
 Rare condition: small coef for last iteration:  0.000D+00
 Coeff-En:   0.935D+00 0.000D+00 0.000D+00 0.000D+00 0.000D+00 0.648D-01
 Coeff:      0.935D+00 0.000D+00 0.000D+00 0.000D+00 0.000D+00 0.648D-01
 Gap=     0.083 Goal=   None    Shift=    0.000
 RMSDP=2.50D-04 MaxDP=3.63D-03 DE= 3.19D-01 OVMax= 3.37D-03

 Cycle   7  Pass 1  IDiag  1:
 E= -1280.58188079105     Delta-E=        0.081774701912 Rises=F Damp=F
 DIIS: error= 7.00D-01 at cycle   7 NSaved=   7.
 NSaved= 7 IEnMin= 2 EnMin= -1291.87381922390     IErMin= 2 ErrMin= 9.54D-02
 ErrMax= 7.00D-01  0.00D+00 EMaxC= 1.00D-01 BMatC= 1.60D+01 BMatP= 4.57D-01
 IDIUse=2 WtCom= 0.00D+00 WtEn= 1.00D+00
 EnCoef did   100 forward-backward iterations
 Rare condition: small coef for last iteration:  0.000D+00
 Coeff-En:   0.936D+00 0.000D+00 0.000D+00 0.000D+00 0.000D+00 0.000D+00
 Coeff-En:   0.642D-01
 Coeff:      0.936D+00 0.000D+00 0.000D+00 0.000D+00 0.000D+00 0.000D+00
 Coeff:      0.642D-01
 Gap=     0.083 Goal=   None    Shift=    0.000
 RMSDP=6.11D-05 MaxDP=8.85D-04 DE= 8.18D-02 OVMax= 8.10D-04

 Cycle   8  Pass 1  IDiag  1:
 E= -1280.56191625884     Delta-E=        0.019964532210 Rises=F Damp=F
 DIIS: error= 7.01D-01 at cycle   8 NSaved=   8.
 NSaved= 8 IEnMin= 2 EnMin= -1291.87381922390     IErMin= 2 ErrMin= 9.54D-02
 ErrMax= 7.01D-01  0.00D+00 EMaxC= 1.00D-01 BMatC= 1.60D+01 BMatP= 4.57D-01
 IDIUse=2 WtCom= 0.00D+00 WtEn= 1.00D+00
 EnCoef did   100 forward-backward iterations
 Rare condition: small coef for last iteration:  0.000D+00
 Coeff-En:   0.936D+00 0.000D+00 0.000D+00 0.000D+00 0.000D+00 0.000D+00
 Coeff-En:   0.000D+00 0.641D-01
 Coeff:      0.936D+00 0.000D+00 0.000D+00 0.000D+00 0.000D+00 0.000D+00
 Coeff:      0.000D+00 0.641D-01
 Gap=     0.083 Goal=   None    Shift=    0.000
 RMSDP=1.50D-05 MaxDP=2.18D-04 DE= 2.00D-02 OVMax= 1.97D-04

 Cycle   9  Pass 1  IDiag  1:
 E= -1280.55703016059     Delta-E=        0.004886098254 Rises=F Damp=F
 DIIS: error= 7.01D-01 at cycle   9 NSaved=   9.
 NSaved= 9 IEnMin= 2 EnMin= -1291.87381922390     IErMin= 2 ErrMin= 9.54D-02
 ErrMax= 7.01D-01  0.00D+00 EMaxC= 1.00D-01 BMatC= 1.60D+01 BMatP= 4.57D-01
 IDIUse=2 WtCom= 0.00D+00 WtEn= 1.00D+00
 EnCoef did   100 forward-backward iterations
 Rare condition: small coef for last iteration:  0.000D+00
 Coeff-En:   0.936D+00 0.000D+00 0.000D+00 0.000D+00 0.000D+00 0.000D+00
 Coeff-En:   0.000D+00 0.000D+00 0.640D-01
 Coeff:      0.936D+00 0.000D+00 0.000D+00 0.000D+00 0.000D+00 0.000D+00
 Coeff:      0.000D+00 0.000D+00 0.640D-01
 Gap=     0.083 Goal=   None    Shift=    0.000
 RMSDP=3.65D-06 MaxDP=5.31D-05 DE= 4.89D-03 OVMax= 4.81D-05

 Cycle  10  Pass 1  IDiag  1:
 E= -1280.55583799275     Delta-E=        0.001192167835 Rises=F Damp=F
 DIIS: error= 7.01D-01 at cycle  10 NSaved=  10.
 NSaved=10 IEnMin= 2 EnMin= -1291.87381922390     IErMin= 2 ErrMin= 9.54D-02
 ErrMax= 7.01D-01  0.00D+00 EMaxC= 1.00D-01 BMatC= 1.60D+01 BMatP= 4.57D-01
 IDIUse=2 WtCom= 0.00D+00 WtEn= 1.00D+00
 EnCoef did   100 forward-backward iterations
 Rare condition: small coef for last iteration:  0.000D+00
 Coeff-En:   0.936D+00 0.000D+00 0.000D+00 0.000D+00 0.000D+00 0.000D+00
 Coeff-En:   0.000D+00 0.000D+00 0.000D+00 0.640D-01
 Coeff:      0.936D+00 0.000D+00 0.000D+00 0.000D+00 0.000D+00 0.000D+00
 Coeff:      0.000D+00 0.000D+00 0.000D+00 0.640D-01
 Gap=     0.083 Goal=   None    Shift=    0.000
 RMSDP=8.92D-07 MaxDP=1.30D-05 DE= 1.19D-03 OVMax= 1.17D-05

 Cycle  11  Pass 1  IDiag  1:
 E= -1280.55554706784     Delta-E=        0.000290924914 Rises=F Damp=F
 DIIS: error= 7.01D-01 at cycle  11 NSaved=  11.
 NSaved=11 IEnMin= 2 EnMin= -1291.87381922390     IErMin= 2 ErrMin= 9.54D-02
 ErrMax= 7.01D-01  0.00D+00 EMaxC= 1.00D-01 BMatC= 1.60D+01 BMatP= 4.57D-01
 IDIUse=2 WtCom= 0.00D+00 WtEn= 1.00D+00
 EnCoef did   100 forward-backward iterations
 Rare condition: small coef for last iteration:  0.000D+00
 Coeff-En:   0.936D+00 0.000D+00 0.000D+00 0.000D+00 0.000D+00 0.000D+00
 Coeff-En:   0.000D+00 0.000D+00 0.000D+00 0.000D+00 0.640D-01
 Coeff:      0.936D+00 0.000D+00 0.000D+00 0.000D+00 0.000D+00 0.000D+00
 Coeff:      0.000D+00 0.000D+00 0.000D+00 0.000D+00 0.640D-01
 Gap=     0.083 Goal=   None    Shift=    0.000
 RMSDP=2.18D-07 MaxDP=3.17D-06 DE= 2.91D-04 OVMax= 2.86D-06

 Cycle  12  Pass 1  IDiag  1:
 E= -1280.55547608690     Delta-E=        0.000070980933 Rises=F Damp=F
 DIIS: error= 7.01D-01 at cycle  12 NSaved=  12.
 NSaved=12 IEnMin= 2 EnMin= -1291.87381922390     IErMin= 2 ErrMin= 9.54D-02
 ErrMax= 7.01D-01  0.00D+00 EMaxC= 1.00D-01 BMatC= 1.60D+01 BMatP= 4.57D-01
 IDIUse=2 WtCom= 0.00D+00 WtEn= 1.00D+00
 EnCoef did   100 forward-backward iterations
 Rare condition: small coef for last iteration:  0.000D+00
 Coeff-En:   0.936D+00 0.000D+00 0.000D+00 0.000D+00 0.000D+00 0.000D+00
 Coeff-En:   0.000D+00 0.000D+00 0.000D+00 0.000D+00 0.000D+00 0.640D-01
 Coeff:      0.936D+00 0.000D+00 0.000D+00 0.000D+00 0.000D+00 0.000D+00
 Coeff:      0.000D+00 0.000D+00 0.000D+00 0.000D+00 0.000D+00 0.640D-01
 Gap=     0.083 Goal=   None    Shift=    0.000
 RMSDP=5.31D-08 MaxDP=7.72D-07 DE= 7.10D-05 OVMax= 6.98D-07

 Cycle  13  Pass 1  IDiag  1:
 E= -1280.55545876851     Delta-E=        0.000017318397 Rises=F Damp=F
 DIIS: error= 7.01D-01 at cycle  13 NSaved=  13.
 NSaved=13 IEnMin= 2 EnMin= -1291.87381922390     IErMin= 2 ErrMin= 9.54D-02
 ErrMax= 7.01D-01  0.00D+00 EMaxC= 1.00D-01 BMatC= 1.60D+01 BMatP= 4.57D-01
 IDIUse=2 WtCom= 0.00D+00 WtEn= 1.00D+00
 EnCoef did   100 forward-backward iterations
 Rare condition: small coef for last iteration:  0.000D+00
 Coeff-En:   0.936D+00 0.000D+00 0.000D+00 0.000D+00 0.000D+00 0.000D+00
 Coeff-En:   0.000D+00 0.000D+00 0.000D+00 0.000D+00 0.000D+00 0.000D+00
 Coeff-En:   0.640D-01
 Coeff:      0.936D+00 0.000D+00 0.000D+00 0.000D+00 0.000D+00 0.000D+00
 Coeff:      0.000D+00 0.000D+00 0.000D+00 0.000D+00 0.000D+00 0.000D+00
 Coeff:      0.640D-01
 Gap=     0.083 Goal=   None    Shift=    0.000
 RMSDP=1.30D-08 MaxDP=1.88D-07 DE= 1.73D-05 OVMax= 1.70D-07

 Cycle  14  Pass 1  IDiag  1:
 E= -1280.55545454310     Delta-E=        0.000004225404 Rises=F Damp=F
 DIIS: error= 7.01D-01 at cycle  14 NSaved=  14.
 NSaved=14 IEnMin= 2 EnMin= -1291.87381922390     IErMin= 2 ErrMin= 9.54D-02
 ErrMax= 7.01D-01  0.00D+00 EMaxC= 1.00D-01 BMatC= 1.60D+01 BMatP= 4.57D-01
 IDIUse=2 WtCom= 0.00D+00 WtEn= 1.00D+00
 EnCoef did   100 forward-backward iterations
 Rare condition: small coef for last iteration:  0.000D+00
 Coeff-En:   0.936D+00 0.000D+00 0.000D+00 0.000D+00 0.000D+00 0.000D+00
 Coeff-En:   0.000D+00 0.000D+00 0.000D+00 0.000D+00 0.000D+00 0.000D+00
 Coeff-En:   0.000D+00 0.640D-01
 Coeff:      0.936D+00 0.000D+00 0.000D+00 0.000D+00 0.000D+00 0.000D+00
 Coeff:      0.000D+00 0.000D+00 0.000D+00 0.000D+00 0.000D+00 0.000D+00
 Coeff:      0.000D+00 0.640D-01
 Gap=     0.083 Goal=   None    Shift=    0.000
 RMSDP=3.16D-09 MaxDP=4.60D-08 DE= 4.23D-06 OVMax= 4.16D-08

 Cycle  15  Pass 1  IDiag  1:
 E= -1280.55545351217     Delta-E=        0.000001030932 Rises=F Damp=F
 DIIS: error= 7.01D-01 at cycle  15 NSaved=  15.
 NSaved=15 IEnMin= 2 EnMin= -1291.87381922390     IErMin= 2 ErrMin= 9.54D-02
 ErrMax= 7.01D-01  0.00D+00 EMaxC= 1.00D-01 BMatC= 1.60D+01 BMatP= 4.57D-01
 IDIUse=2 WtCom= 0.00D+00 WtEn= 1.00D+00
 EnCoef did   100 forward-backward iterations
 Rare condition: small coef for last iteration:  0.000D+00
 Coeff-En:   0.936D+00 0.000D+00 0.000D+00 0.000D+00 0.000D+00 0.000D+00
 Coeff-En:   0.000D+00 0.000D+00 0.000D+00 0.000D+00 0.000D+00 0.000D+00
 Coeff-En:   0.000D+00 0.000D+00 0.640D-01
 Coeff:      0.936D+00 0.000D+00 0.000D+00 0.000D+00 0.000D+00 0.000D+00
 Coeff:      0.000D+00 0.000D+00 0.000D+00 0.000D+00 0.000D+00 0.000D+00
 Coeff:      0.000D+00 0.000D+00 0.640D-01
 Gap=     0.083 Goal=   None    Shift=    0.000
 RMSDP=7.71D-10 MaxDP=1.12D-08 DE= 1.03D-06 OVMax= 1.01D-08

 Cycle  16  Pass 1  IDiag  1:
 E= -1280.55545326064     Delta-E=        0.000000251526 Rises=F Damp=F
 DIIS: error= 7.01D-01 at cycle  16 NSaved=  16.
 NSaved=16 IEnMin= 2 EnMin= -1291.87381922390     IErMin= 2 ErrMin= 9.54D-02
 ErrMax= 7.01D-01  0.00D+00 EMaxC= 1.00D-01 BMatC= 1.60D+01 BMatP= 4.57D-01
 IDIUse=2 WtCom= 0.00D+00 WtEn= 1.00D+00
 EnCoef did   100 forward-backward iterations
 Rare condition: small coef for last iteration:  0.000D+00
 Coeff-En:   0.936D+00 0.000D+00 0.000D+00 0.000D+00 0.000D+00 0.000D+00
 Coeff-En:   0.000D+00 0.000D+00 0.000D+00 0.000D+00 0.000D+00 0.000D+00
 Coeff-En:   0.000D+00 0.000D+00 0.000D+00 0.640D-01
 Coeff:      0.936D+00 0.000D+00 0.000D+00 0.000D+00 0.000D+00 0.000D+00
 Coeff:      0.000D+00 0.000D+00 0.000D+00 0.000D+00 0.000D+00 0.000D+00
 Coeff:      0.000D+00 0.000D+00 0.000D+00 0.640D-01
 Gap=     0.083 Goal=   None    Shift=    0.000
 RMSDP=1.88D-10 MaxDP=2.74D-09 DE= 2.52D-07 OVMax= 2.47D-09

 Cycle  17  Pass 1  IDiag  1:
 E= -1280.55545319928     Delta-E=        0.000000061366 Rises=F Damp=F
 DIIS: error= 7.01D-01 at cycle  17 NSaved=  17.
 NSaved=17 IEnMin= 2 EnMin= -1291.87381922390     IErMin= 2 ErrMin= 9.54D-02
 ErrMax= 7.01D-01  0.00D+00 EMaxC= 1.00D-01 BMatC= 1.60D+01 BMatP= 4.57D-01
 IDIUse=2 WtCom= 0.00D+00 WtEn= 1.00D+00
 EnCoef did   100 forward-backward iterations
 Rare condition: small coef for last iteration:  0.000D+00
 Coeff-En:   0.936D+00 0.000D+00 0.000D+00 0.000D+00 0.000D+00 0.000D+00
 Coeff-En:   0.000D+00 0.000D+00 0.000D+00 0.000D+00 0.000D+00 0.000D+00
 Coeff-En:   0.000D+00 0.000D+00 0.000D+00 0.000D+00 0.640D-01
 Coeff:      0.936D+00 0.000D+00 0.000D+00 0.000D+00 0.000D+00 0.000D+00
 Coeff:      0.000D+00 0.000D+00 0.000D+00 0.000D+00 0.000D+00 0.000D+00
 Coeff:      0.000D+00 0.000D+00 0.000D+00 0.000D+00 0.640D-01
 Gap=     0.083 Goal=   None    Shift=    0.000
 RMSDP=4.59D-11 MaxDP=6.68D-10 DE= 6.14D-08 OVMax= 6.04D-10

 Cycle  18  Pass 1  IDiag  1:
 E= -1280.55545318430     Delta-E=        0.000000014976 Rises=F Damp=F
 DIIS: error= 7.01D-01 at cycle  18 NSaved=  18.
 NSaved=18 IEnMin= 2 EnMin= -1291.87381922390     IErMin= 2 ErrMin= 9.54D-02
 ErrMax= 7.01D-01  0.00D+00 EMaxC= 1.00D-01 BMatC= 1.60D+01 BMatP= 4.57D-01
 IDIUse=2 WtCom= 0.00D+00 WtEn= 1.00D+00
 EnCoef did   100 forward-backward iterations
 Rare condition: small coef for last iteration:  0.000D+00
 Coeff-En:   0.936D+00 0.000D+00 0.000D+00 0.000D+00 0.000D+00 0.000D+00
 Coeff-En:   0.000D+00 0.000D+00 0.000D+00 0.000D+00 0.000D+00 0.000D+00
 Coeff-En:   0.000D+00 0.000D+00 0.000D+00 0.000D+00 0.000D+00 0.640D-01
 Coeff:      0.936D+00 0.000D+00 0.000D+00 0.000D+00 0.000D+00 0.000D+00
 Coeff:      0.000D+00 0.000D+00 0.000D+00 0.000D+00 0.000D+00 0.000D+00
 Coeff:      0.000D+00 0.000D+00 0.000D+00 0.000D+00 0.000D+00 0.640D-01
 Gap=     0.083 Goal=   None    Shift=    0.000
 RMSDP=1.12D-11 MaxDP=1.63D-10 DE= 1.50D-08 OVMax= 1.47D-10

 Cycle  19  Pass 1  IDiag  1:
 E= -1280.55545318065     Delta-E=        0.000000003649 Rises=F Damp=F
 DIIS: error= 7.01D-01 at cycle  19 NSaved=  19.
 NSaved=19 IEnMin= 2 EnMin= -1291.87381922390     IErMin= 2 ErrMin= 9.54D-02
 ErrMax= 7.01D-01  0.00D+00 EMaxC= 1.00D-01 BMatC= 1.60D+01 BMatP= 4.57D-01
 IDIUse=2 WtCom= 0.00D+00 WtEn= 1.00D+00
 EnCoef did   100 forward-backward iterations
 Rare condition: small coef for last iteration:  0.000D+00
 Coeff-En:   0.936D+00 0.000D+00 0.000D+00 0.000D+00 0.000D+00 0.000D+00
 Coeff-En:   0.000D+00 0.000D+00 0.000D+00 0.000D+00 0.000D+00 0.000D+00
 Coeff-En:   0.000D+00 0.000D+00 0.000D+00 0.000D+00 0.000D+00 0.000D+00
 Coeff-En:   0.640D-01
 Coeff:      0.936D+00 0.000D+00 0.000D+00 0.000D+00 0.000D+00 0.000D+00
 Coeff:      0.000D+00 0.000D+00 0.000D+00 0.000D+00 0.000D+00 0.000D+00
 Coeff:      0.000D+00 0.000D+00 0.000D+00 0.000D+00 0.000D+00 0.000D+00
 Coeff:      0.640D-01
 Gap=     0.083 Goal=   None    Shift=    0.000
 RMSDP=2.72D-12 MaxDP=3.96D-11 DE= 3.65D-09 OVMax= 3.58D-11

 Cycle  20  Pass 1  IDiag  1:
 E= -1280.55545317976     Delta-E=        0.000000000890 Rises=F Damp=F
 DIIS: error= 7.01D-01 at cycle  20 NSaved=  20.
 NSaved=20 IEnMin= 2 EnMin= -1291.87381922390     IErMin= 2 ErrMin= 9.54D-02
 ErrMax= 7.01D-01  0.00D+00 EMaxC= 1.00D-01 BMatC= 1.60D+01 BMatP= 4.57D-01
 IDIUse=2 WtCom= 0.00D+00 WtEn= 1.00D+00
 EnCoef did   100 forward-backward iterations
 Rare condition: small coef for last iteration:  0.000D+00
 Coeff-En:   0.936D+00 0.000D+00 0.000D+00 0.000D+00 0.000D+00 0.000D+00
 Coeff-En:   0.000D+00 0.000D+00 0.000D+00 0.000D+00 0.000D+00 0.000D+00
 Coeff-En:   0.000D+00 0.000D+00 0.000D+00 0.000D+00 0.000D+00 0.000D+00
 Coeff-En:   0.000D+00 0.640D-01
 Coeff:      0.936D+00 0.000D+00 0.000D+00 0.000D+00 0.000D+00 0.000D+00
 Coeff:      0.000D+00 0.000D+00 0.000D+00 0.000D+00 0.000D+00 0.000D+00
 Coeff:      0.000D+00 0.000D+00 0.000D+00 0.000D+00 0.000D+00 0.000D+00
 Coeff:      0.000D+00 0.640D-01
 Gap=     0.083 Goal=   None    Shift=    0.000
 RMSDP=6.69D-13 MaxDP=9.73D-12 DE= 8.90D-10 OVMax= 8.79D-12

 Density matrix is not changing but DIIS error= 7.01D-01 CofLast= 0.00D+00.
 Cycle  21  Pass 1  IDiag  1:
 E= -1280.55545317954     Delta-E=        0.000000000223 Rises=F Damp=F
 DIIS: error= 7.01D-01 at cycle   1 NSaved=   1.
 NSaved= 1 IEnMin= 1 EnMin= -1280.55545317954     IErMin= 1 ErrMin= 7.01D-01
 ErrMax= 7.01D-01  0.00D+00 EMaxC= 1.00D+00 BMatC= 1.60D+01 BMatP= 1.60D+01
 IDIUse=1 WtCom= 1.00D+00 WtEn= 0.00D+00
 Coeff-Com:  0.100D+01
 Coeff:      0.100D+01
 Gap=     0.116 Goal=   None    Shift=    0.000
 RMSDP=1.43D-01 MaxDP=2.84D+00 DE= 2.23D-10 OVMax= 9.30D-01

 Cycle  22  Pass 1  IDiag  1:
 E= -1242.28561314258     Delta-E=       38.269840036960 Rises=F Damp=F
 DIIS: error= 1.22D+00 at cycle  22 NSaved=   2.
 NSaved= 2 IEnMin= 1 EnMin= -1280.55545317954     IErMin= 1 ErrMin= 7.01D-01
 ErrMax= 1.22D+00  0.00D+00 EMaxC= 1.00D+00 BMatC= 4.82D+01 BMatP= 1.60D+01
 IDIUse=1 WtCom= 1.00D+00 WtEn= 0.00D+00
 Coeff-Com:  0.708D+00 0.292D+00
 Coeff:      0.708D+00 0.292D+00
 Gap=    -0.383 Goal=   None    Shift=    0.000
 RMSDP=1.39D-01 MaxDP=2.99D+00 DE= 3.83D+01 OVMax= 6.99D-01

 Cycle  23  Pass 1  IDiag  1:
 E= -1289.78758628893     Delta-E=      -47.501973146346 Rises=F Damp=F
 DIIS: error= 3.14D-01 at cycle  23 NSaved=   3.
 NSaved= 3 IEnMin= 3 EnMin= -1289.78758628893     IErMin= 3 ErrMin= 3.14D-01
 ErrMax= 3.14D-01  0.00D+00 EMaxC= 1.00D+00 BMatC= 3.84D+00 BMatP= 1.60D+01
 IDIUse=1 WtCom= 1.00D+00 WtEn= 0.00D+00
 Coeff-Com:  0.299D+00 0.730D-03 0.700D+00
 Coeff:      0.299D+00 0.730D-03 0.700D+00
 Gap=    -0.056 Goal=   None    Shift=    0.000
 RMSDP=3.86D-02 MaxDP=6.55D-01 DE=-4.75D+01 OVMax= 9.41D-01

 Cycle  24  Pass 1  IDiag  1:
 E= -1292.07901328482     Delta-E=       -2.291426995896 Rises=F Damp=F
 DIIS: error= 1.69D-01 at cycle  24 NSaved=   4.
 NSaved= 4 IEnMin= 4 EnMin= -1292.07901328482     IErMin= 4 ErrMin= 1.69D-01
 ErrMax= 1.69D-01  0.00D+00 EMaxC= 1.00D+00 BMatC= 6.19D-01 BMatP= 3.84D+00
 IDIUse=1 WtCom= 1.00D+00 WtEn= 0.00D+00
 Coeff-Com:  0.154D+00-0.973D-02 0.195D+00 0.660D+00
 Coeff:      0.154D+00-0.973D-02 0.195D+00 0.660D+00
 Gap=    -0.046 Goal=   None    Shift=    0.000
 RMSDP=3.26D-02 MaxDP=5.58D-01 DE=-2.29D+00 OVMax= 1.00D+00

 Cycle  25  Pass 1  IDiag  1:
 E= -1292.69740203570     Delta-E=       -0.618388750881 Rises=F Damp=F
 DIIS: error= 5.91D-02 at cycle  25 NSaved=   5.
 NSaved= 5 IEnMin= 5 EnMin= -1292.69740203570     IErMin= 5 ErrMin= 5.91D-02
 ErrMax= 5.91D-02  0.00D+00 EMaxC= 1.00D+00 BMatC= 8.21D-02 BMatP= 6.19D-01
 IDIUse=1 WtCom= 1.00D+00 WtEn= 0.00D+00
 Coeff-Com:  0.143D-02 0.213D-02 0.613D-01 0.142D+00 0.793D+00
 Coeff:      0.143D-02 0.213D-02 0.613D-01 0.142D+00 0.793D+00
 Gap=     0.161 Goal=   None    Shift=    0.000
 RMSDP=7.29D-03 MaxDP=1.32D-01 DE=-6.18D-01 OVMax= 3.44D-02

 Cycle  26  Pass 1  IDiag  1:
 E= -1292.76744938332     Delta-E=       -0.070047347618 Rises=F Damp=F
 DIIS: error= 1.81D-02 at cycle  26 NSaved=   6.
 NSaved= 6 IEnMin= 6 EnMin= -1292.76744938332     IErMin= 6 ErrMin= 1.81D-02
 ErrMax= 1.81D-02  0.00D+00 EMaxC= 1.00D+00 BMatC= 7.52D-03 BMatP= 8.21D-02
 IDIUse=1 WtCom= 1.00D+00 WtEn= 0.00D+00
 Coeff-Com: -0.120D-01 0.177D-02-0.579D-02-0.836D-02-0.167D+00 0.119D+01
 Coeff:     -0.120D-01 0.177D-02-0.579D-02-0.836D-02-0.167D+00 0.119D+01
 Gap=     0.147 Goal=   None    Shift=    0.000
 RMSDP=5.53D-03 MaxDP=1.08D-01 DE=-7.00D-02 OVMax= 8.49D-02

 Cycle  27  Pass 1  IDiag  1:
 E= -1292.77738492317     Delta-E=       -0.009935539854 Rises=F Damp=F
 DIIS: error= 7.39D-03 at cycle  27 NSaved=   7.
 NSaved= 7 IEnMin= 7 EnMin= -1292.77738492317     IErMin= 7 ErrMin= 7.39D-03
 ErrMax= 7.39D-03  0.00D+00 EMaxC= 1.00D+00 BMatC= 2.52D-03 BMatP= 7.52D-03
 IDIUse=1 WtCom= 1.00D+00 WtEn= 0.00D+00
 Coeff-Com: -0.130D-02 0.853D-03-0.811D-02 0.462D-03-0.142D+00 0.566D+00
 Coeff-Com:  0.584D+00
 Coeff:     -0.130D-02 0.853D-03-0.811D-02 0.462D-03-0.142D+00 0.566D+00
 Coeff:      0.584D+00
 Gap=     0.136 Goal=   None    Shift=    0.000
 RMSDP=3.36D-03 MaxDP=7.68D-02 DE=-9.94D-03 OVMax= 8.70D-02

 Cycle  28  Pass 1  IDiag  1:
 E= -1292.78082978480     Delta-E=       -0.003444861622 Rises=F Damp=F
 DIIS: error= 2.60D-03 at cycle  28 NSaved=   8.
 NSaved= 8 IEnMin= 8 EnMin= -1292.78082978480     IErMin= 8 ErrMin= 2.60D-03
 ErrMax= 2.60D-03  0.00D+00 EMaxC= 1.00D+00 BMatC= 2.23D-04 BMatP= 2.52D-03
 IDIUse=1 WtCom= 1.00D+00 WtEn= 0.00D+00
 Coeff-Com:  0.299D-02 0.797D-04 0.268D-02 0.242D-02 0.447D-01-0.180D+00
 Coeff-Com:  0.346D-01 0.109D+01
 Coeff:      0.299D-02 0.797D-04 0.268D-02 0.242D-02 0.447D-01-0.180D+00
 Coeff:      0.346D-01 0.109D+01
 Gap=     0.136 Goal=   None    Shift=    0.000
 RMSDP=1.16D-03 MaxDP=2.26D-02 DE=-3.44D-03 OVMax= 1.69D-02

 Cycle  29  Pass 1  IDiag  1:
 E= -1292.78121683919     Delta-E=       -0.000387054396 Rises=F Damp=F
 DIIS: error= 9.46D-04 at cycle  29 NSaved=   9.
 NSaved= 9 IEnMin= 9 EnMin= -1292.78121683919     IErMin= 9 ErrMin= 9.46D-04
 ErrMax= 9.46D-04  0.00D+00 EMaxC= 1.00D+00 BMatC= 3.39D-05 BMatP= 2.23D-04
 IDIUse=1 WtCom= 1.00D+00 WtEn= 0.00D+00
 Coeff-Com:  0.118D-03-0.222D-04 0.640D-03 0.176D-02 0.258D-01-0.763D-01
 Coeff-Com: -0.138D+00 0.131D+00 0.106D+01
 Coeff:      0.118D-03-0.222D-04 0.640D-03 0.176D-02 0.258D-01-0.763D-01
 Coeff:     -0.138D+00 0.131D+00 0.106D+01
 Gap=     0.137 Goal=   None    Shift=    0.000
 RMSDP=4.19D-04 MaxDP=8.54D-03 DE=-3.87D-04 OVMax= 8.99D-03

 Cycle  30  Pass 1  IDiag  1:
 E= -1292.78128177682     Delta-E=       -0.000064937627 Rises=F Damp=F
 DIIS: error= 1.31D-03 at cycle  30 NSaved=  10.
 NSaved=10 IEnMin=10 EnMin= -1292.78128177682     IErMin= 9 ErrMin= 9.46D-04
 ErrMax= 1.31D-03  0.00D+00 EMaxC= 1.00D+00 BMatC= 4.13D-05 BMatP= 3.39D-05
 IDIUse=1 WtCom= 1.00D+00 WtEn= 0.00D+00
 Coeff-Com: -0.550D-03 0.398D-04 0.818D-03-0.667D-03-0.194D-03-0.173D-01
 Coeff-Com: -0.236D-01 0.365D-01 0.257D+00 0.748D+00
 Coeff:     -0.550D-03 0.398D-04 0.818D-03-0.667D-03-0.194D-03-0.173D-01
 Coeff:     -0.236D-01 0.365D-01 0.257D+00 0.748D+00
 Gap=     0.137 Goal=   None    Shift=    0.000
 RMSDP=1.11D-04 MaxDP=2.54D-03 DE=-6.49D-05 OVMax= 1.23D-03

 Cycle  31  Pass 1  IDiag  1:
 E= -1292.78129831108     Delta-E=       -0.000016534262 Rises=F Damp=F
 DIIS: error= 1.20D-03 at cycle  31 NSaved=  11.
 NSaved=11 IEnMin=11 EnMin= -1292.78129831108     IErMin= 9 ErrMin= 9.46D-04
 ErrMax= 1.20D-03  0.00D+00 EMaxC= 1.00D+00 BMatC= 2.88D-05 BMatP= 3.39D-05
 IDIUse=1 WtCom= 1.00D+00 WtEn= 0.00D+00
 Coeff-Com: -0.651D-03 0.397D-04 0.811D-03-0.979D-03 0.216D-02-0.217D-01
 Coeff-Com: -0.165D-01 0.603D-01 0.137D+00 0.299D+00 0.541D+00
 Coeff:     -0.651D-03 0.397D-04 0.811D-03-0.979D-03 0.216D-02-0.217D-01
 Coeff:     -0.165D-01 0.603D-01 0.137D+00 0.299D+00 0.541D+00
 Gap=     0.137 Goal=   None    Shift=    0.000
 RMSDP=3.67D-05 MaxDP=5.18D-04 DE=-1.65D-05 OVMax= 7.32D-04

 Cycle  32  Pass 1  IDiag  1:
 E= -1292.78130436135     Delta-E=       -0.000006050265 Rises=F Damp=F
 DIIS: error= 1.18D-03 at cycle  32 NSaved=  12.
 NSaved=12 IEnMin=12 EnMin= -1292.78130436135     IErMin= 9 ErrMin= 9.46D-04
 ErrMax= 1.18D-03  0.00D+00 EMaxC= 1.00D+00 BMatC= 2.43D-05 BMatP= 2.88D-05
 IDIUse=1 WtCom= 1.00D+00 WtEn= 0.00D+00
 Coeff-Com: -0.586D-03 0.331D-04 0.658D-03-0.939D-03 0.361D-02-0.221D-01
 Coeff-Com: -0.170D-01 0.648D-01 0.152D+00 0.150D+00-0.499D+00 0.117D+01
 Coeff:     -0.586D-03 0.331D-04 0.658D-03-0.939D-03 0.361D-02-0.221D-01
 Coeff:     -0.170D-01 0.648D-01 0.152D+00 0.150D+00-0.499D+00 0.117D+01
 Gap=     0.136 Goal=   None    Shift=    0.000
 RMSDP=4.72D-05 MaxDP=7.11D-04 DE=-6.05D-06 OVMax= 1.15D-03

 Cycle  33  Pass 1  IDiag  1:
 E= -1292.78131438469     Delta-E=       -0.000010023344 Rises=F Damp=F
 DIIS: error= 1.06D-03 at cycle  33 NSaved=  13.
 NSaved=13 IEnMin=13 EnMin= -1292.78131438469     IErMin= 9 ErrMin= 9.46D-04
 ErrMax= 1.06D-03  0.00D+00 EMaxC= 1.00D+00 BMatC= 1.66D-05 BMatP= 2.43D-05
 IDIUse=1 WtCom= 1.00D+00 WtEn= 0.00D+00
 Coeff-Com: -0.370D-03 0.217D-04 0.436D-03-0.638D-03 0.200D-02-0.141D-01
 Coeff-Com: -0.142D-01 0.385D-01 0.182D+00 0.278D+00-0.139D+01 0.832D+00
 Coeff-Com:  0.109D+01
 Coeff:     -0.370D-03 0.217D-04 0.436D-03-0.638D-03 0.200D-02-0.141D-01
 Coeff:     -0.142D-01 0.385D-01 0.182D+00 0.278D+00-0.139D+01 0.832D+00
 Coeff:      0.109D+01
 Gap=     0.136 Goal=   None    Shift=    0.000
 RMSDP=6.16D-05 MaxDP=7.68D-04 DE=-1.00D-05 OVMax= 2.15D-03

 Cycle  34  Pass 1  IDiag  1:
 E= -1292.78133202002     Delta-E=       -0.000017635328 Rises=F Damp=F
 DIIS: error= 8.77D-04 at cycle  34 NSaved=  14.
 NSaved=14 IEnMin=14 EnMin= -1292.78133202002     IErMin=14 ErrMin= 8.77D-04
 ErrMax= 8.77D-04  0.00D+00 EMaxC= 1.00D+00 BMatC= 8.14D-06 BMatP= 1.66D-05
 IDIUse=1 WtCom= 1.00D+00 WtEn= 0.00D+00
 Coeff-Com: -0.499D-03 0.291D-04 0.327D-03-0.124D-02 0.429D-02-0.202D-01
 Coeff-Com: -0.205D-01 0.716D-01 0.428D+00 0.416D+00-0.632D+01 0.427D+01
 Coeff-Com:  0.560D+01-0.343D+01
 Coeff:     -0.499D-03 0.291D-04 0.327D-03-0.124D-02 0.429D-02-0.202D-01
 Coeff:     -0.205D-01 0.716D-01 0.428D+00 0.416D+00-0.632D+01 0.427D+01
 Coeff:      0.560D+01-0.343D+01
 Gap=     0.136 Goal=   None    Shift=    0.000
 RMSDP=1.09D-04 MaxDP=1.29D-03 DE=-1.76D-05 OVMax= 3.63D-03

 Cycle  35  Pass 1  IDiag  1:
 E= -1292.78131263742     Delta-E=        0.000019382601 Rises=F Damp=F
 DIIS: error= 5.70D-04 at cycle  35 NSaved=  15.
 NSaved=15 IEnMin=14 EnMin= -1292.78133202002     IErMin=15 ErrMin= 5.70D-04
 ErrMax= 5.70D-04  0.00D+00 EMaxC= 1.00D+00 BMatC= 3.69D-06 BMatP= 8.14D-06
 IDIUse=1 WtCom= 1.00D+00 WtEn= 0.00D+00
 Coeff-Com:  0.167D-04-0.610D-05 0.157D-03-0.108D-03-0.198D-03 0.167D-02
 Coeff-Com: -0.177D-02-0.435D-01 0.649D-01 0.395D+00-0.354D+00-0.781D+00
 Coeff-Com:  0.625D+00-0.138D+01 0.247D+01
 Coeff:      0.167D-04-0.610D-05 0.157D-03-0.108D-03-0.198D-03 0.167D-02
 Coeff:     -0.177D-02-0.435D-01 0.649D-01 0.395D+00-0.354D+00-0.781D+00
 Coeff:      0.625D+00-0.138D+01 0.247D+01
 Gap=     0.137 Goal=   None    Shift=    0.000
 RMSDP=1.44D-04 MaxDP=1.84D-03 DE= 1.94D-05 OVMax= 5.11D-03

 Cycle  36  Pass 1  IDiag  1:
 E= -1292.78130356265     Delta-E=        0.000009074771 Rises=F Damp=F
 DIIS: error= 4.75D-05 at cycle  36 NSaved=  16.
 NSaved=16 IEnMin=14 EnMin= -1292.78133202002     IErMin=16 ErrMin= 4.75D-05
 ErrMax= 4.75D-05  0.00D+00 EMaxC= 1.00D+00 BMatC= 5.25D-08 BMatP= 3.69D-06
 IDIUse=1 WtCom= 1.00D+00 WtEn= 0.00D+00
 Coeff-Com:  0.564D-05-0.195D-05-0.120D-04-0.333D-05 0.522D-03-0.167D-03
 Coeff-Com: -0.171D-02 0.819D-02-0.386D-01-0.123D+00 0.549D+00-0.151D+00
 Coeff-Com: -0.479D+00 0.289D+00-0.185D+00 0.113D+01
 Coeff:      0.564D-05-0.195D-05-0.120D-04-0.333D-05 0.522D-03-0.167D-03
 Coeff:     -0.171D-02 0.819D-02-0.386D-01-0.123D+00 0.549D+00-0.151D+00
 Coeff:     -0.479D+00 0.289D+00-0.185D+00 0.113D+01
 Gap=     0.137 Goal=   None    Shift=    0.000
 RMSDP=1.33D-05 MaxDP=1.35D-04 DE= 9.07D-06 OVMax= 3.33D-04

 Cycle  37  Pass 1  IDiag  1:
 E= -1292.78130356582     Delta-E=       -0.000000003177 Rises=F Damp=F
 DIIS: error= 1.47D-05 at cycle  37 NSaved=  17.
 NSaved=17 IEnMin=14 EnMin= -1292.78133202002     IErMin=17 ErrMin= 1.47D-05
 ErrMax= 1.47D-05  0.00D+00 EMaxC= 1.00D+00 BMatC= 6.87D-09 BMatP= 5.25D-08
 IDIUse=1 WtCom= 1.00D+00 WtEn= 0.00D+00
 Coeff-Com:  0.220D-05-0.582D-06-0.381D-05 0.259D-05-0.906D-05-0.515D-04
 Coeff-Com:  0.478D-03 0.283D-02-0.102D-01-0.325D-01 0.116D+00 0.140D-01
 Coeff-Com: -0.109D+00 0.887D-01-0.115D+00 0.919D-01 0.953D+00
 Coeff:      0.220D-05-0.582D-06-0.381D-05 0.259D-05-0.906D-05-0.515D-04
 Coeff:      0.478D-03 0.283D-02-0.102D-01-0.325D-01 0.116D+00 0.140D-01
 Coeff:     -0.109D+00 0.887D-01-0.115D+00 0.919D-01 0.953D+00
 Gap=     0.137 Goal=   None    Shift=    0.000
 RMSDP=1.64D-06 MaxDP=2.04D-05 DE=-3.18D-09 OVMax= 2.94D-05

 Cycle  38  Pass 1  IDiag  1:
 E= -1292.78130356949     Delta-E=       -0.000000003663 Rises=F Damp=F
 DIIS: error= 6.65D-06 at cycle  38 NSaved=  18.
 NSaved=18 IEnMin=14 EnMin= -1292.78133202002     IErMin=18 ErrMin= 6.65D-06
 ErrMax= 6.65D-06  0.00D+00 EMaxC= 1.00D+00 BMatC= 1.09D-09 BMatP= 6.87D-09
 IDIUse=1 WtCom= 1.00D+00 WtEn= 0.00D+00
 Coeff-Com:  0.526D-06-0.171D-06-0.500D-06 0.127D-05 0.117D-04-0.479D-04
 Coeff-Com:  0.669D-04-0.573D-04 0.151D-03-0.397D-03-0.690D-02 0.113D-01
 Coeff-Com:  0.895D-02-0.103D-01 0.205D-02-0.453D-01 0.579D-01 0.983D+00
 Coeff:      0.526D-06-0.171D-06-0.500D-06 0.127D-05 0.117D-04-0.479D-04
 Coeff:      0.669D-04-0.573D-04 0.151D-03-0.397D-03-0.690D-02 0.113D-01
 Coeff:      0.895D-02-0.103D-01 0.205D-02-0.453D-01 0.579D-01 0.983D+00
 Gap=     0.137 Goal=   None    Shift=    0.000
 RMSDP=5.34D-07 MaxDP=7.50D-06 DE=-3.66D-09 OVMax= 9.39D-06

 Cycle  39  Pass 1  IDiag  1:
 E= -1292.78130357018     Delta-E=       -0.000000000691 Rises=F Damp=F
 DIIS: error= 8.02D-07 at cycle  39 NSaved=  19.
 NSaved=19 IEnMin=14 EnMin= -1292.78133202002     IErMin=19 ErrMin= 8.02D-07
 ErrMax= 8.02D-07  0.00D+00 EMaxC= 1.00D+00 BMatC= 2.37D-11 BMatP= 1.09D-09
 IDIUse=1 WtCom= 1.00D+00 WtEn= 0.00D+00
 Coeff-Com:  0.244D-06-0.863D-07-0.187D-06 0.669D-06 0.130D-04-0.281D-04
 Coeff-Com: -0.547D-05-0.108D-03 0.287D-03 0.738D-03-0.553D-02 0.279D-02
 Coeff-Com:  0.648D-02-0.811D-02 0.772D-02-0.177D-01-0.523D-01 0.443D+00
 Coeff-Com:  0.623D+00
 Coeff:      0.244D-06-0.863D-07-0.187D-06 0.669D-06 0.130D-04-0.281D-04
 Coeff:     -0.547D-05-0.108D-03 0.287D-03 0.738D-03-0.553D-02 0.279D-02
 Coeff:      0.648D-02-0.811D-02 0.772D-02-0.177D-01-0.523D-01 0.443D+00
 Coeff:      0.623D+00
 Gap=     0.137 Goal=   None    Shift=    0.000
 RMSDP=2.69D-07 MaxDP=6.67D-06 DE=-6.91D-10 OVMax= 7.31D-06

 Cycle  40  Pass 1  IDiag  1:
 E= -1292.78130357021     Delta-E=       -0.000000000028 Rises=F Damp=F
 DIIS: error= 4.08D-07 at cycle  40 NSaved=  20.
 NSaved=20 IEnMin=14 EnMin= -1292.78133202002     IErMin=20 ErrMin= 4.08D-07
 ErrMax= 4.08D-07  0.00D+00 EMaxC= 1.00D+00 BMatC= 4.51D-12 BMatP= 2.37D-11
 IDIUse=1 WtCom= 1.00D+00 WtEn= 0.00D+00
 Coeff-Com:  0.714D-07-0.169D-07-0.404D-07 0.170D-06 0.574D-05-0.420D-05
 Coeff-Com: -0.172D-04 0.245D-04-0.192D-03-0.103D-03 0.252D-02-0.348D-02
 Coeff-Com: -0.239D-02 0.725D-03 0.297D-02 0.103D-01-0.616D-01-0.695D-01
 Coeff-Com:  0.319D+00 0.802D+00
 Coeff:      0.714D-07-0.169D-07-0.404D-07 0.170D-06 0.574D-05-0.420D-05
 Coeff:     -0.172D-04 0.245D-04-0.192D-03-0.103D-03 0.252D-02-0.348D-02
 Coeff:     -0.239D-02 0.725D-03 0.297D-02 0.103D-01-0.616D-01-0.695D-01
 Coeff:      0.319D+00 0.802D+00
 Gap=     0.137 Goal=   None    Shift=    0.000
 RMSDP=1.18D-07 MaxDP=2.27D-06 DE=-2.84D-11 OVMax= 2.25D-06

 Cycle  41  Pass 1  IDiag  1:
 E= -1292.78130357022     Delta-E=       -0.000000000012 Rises=F Damp=F
 DIIS: error= 1.01D-07 at cycle  41 NSaved=  20.
 NSaved=20 IEnMin=13 EnMin= -1292.78133202002     IErMin=20 ErrMin= 1.01D-07
 ErrMax= 1.01D-07  0.00D+00 EMaxC= 1.00D+00 BMatC= 4.31D-13 BMatP= 4.51D-12
 IDIUse=1 WtCom= 1.00D+00 WtEn= 0.00D+00
 Coeff-Com:  0.438D-07 0.391D-07 0.733D-07-0.192D-05 0.350D-05 0.847D-05
 Coeff-Com:  0.299D-04-0.183D-03-0.247D-03 0.242D-02-0.160D-02-0.227D-02
 Coeff-Com:  0.202D-02-0.992D-03 0.483D-02-0.292D-02-0.632D-01-0.545D-01
 Coeff-Com:  0.351D-01 0.108D+01
 Coeff:      0.438D-07 0.391D-07 0.733D-07-0.192D-05 0.350D-05 0.847D-05
 Coeff:      0.299D-04-0.183D-03-0.247D-03 0.242D-02-0.160D-02-0.227D-02
 Coeff:      0.202D-02-0.992D-03 0.483D-02-0.292D-02-0.632D-01-0.545D-01
 Coeff:      0.351D-01 0.108D+01
 Gap=     0.137 Goal=   None    Shift=    0.000
 RMSDP=3.06D-08 MaxDP=4.68D-07 DE=-1.18D-11 OVMax= 5.48D-07

 Cycle  42  Pass 1  IDiag  1:
 E= -1292.78130357022     Delta-E=       -0.000000000001 Rises=F Damp=F
 DIIS: error= 6.44D-08 at cycle  42 NSaved=  20.
 NSaved=20 IEnMin=12 EnMin= -1292.78133202002     IErMin=20 ErrMin= 6.44D-08
 ErrMax= 6.44D-08  0.00D+00 EMaxC= 1.00D+00 BMatC= 7.52D-14 BMatP= 4.31D-13
 IDIUse=1 WtCom= 1.00D+00 WtEn= 0.00D+00
 Coeff-Com: -0.746D-08-0.871D-09 0.404D-06-0.212D-06-0.163D-05-0.547D-05
 Coeff-Com:  0.119D-04-0.415D-04-0.191D-03 0.444D-03 0.233D-03-0.274D-03
 Coeff-Com: -0.736D-04-0.102D-02 0.656D-02 0.161D-01-0.246D-01-0.796D-01
 Coeff-Com: -0.431D-01 0.113D+01
 Coeff:     -0.746D-08-0.871D-09 0.404D-06-0.212D-06-0.163D-05-0.547D-05
 Coeff:      0.119D-04-0.415D-04-0.191D-03 0.444D-03 0.233D-03-0.274D-03
 Coeff:     -0.736D-04-0.102D-02 0.656D-02 0.161D-01-0.246D-01-0.796D-01
 Coeff:     -0.431D-01 0.113D+01
 Gap=     0.137 Goal=   None    Shift=    0.000
 RMSDP=8.86D-09 MaxDP=1.01D-07 DE=-1.14D-12 OVMax= 2.17D-07

 SCF Done:  E(ROHF) =  -1292.78130357     A.U. after   42 cycles
            NFock= 42  Conv=0.89D-08     -V/T= 2.0040
 <Sx>= 0.0000 <Sy>= 0.0000 <Sz>= 1.5000 <S**2>= 3.7500 S= 1.5000
 <L.S>= 0.000000000000E+00
 KE= 1.287679353452D+03 PE=-3.315576493199D+03 EE= 6.109098718459D+02
 Annihilation of the first spin contaminant:
 S**2 before annihilation     3.7500,   after     3.7500
 Leave Link  502 at Tue Sep 22 13:39:26 2015, MaxMem=    33554432 cpu:               0.2 elap:               0.2
 (Enter /home/gauss/gdvi01p/gdv/l601.exe)
 Copying SCF densities to generalized density rwf, IOpCl= 0 IROHF=1.

 **********************************************************************

            Population analysis using the SCF density.

 **********************************************************************

 Alpha  occ. eigenvalues -- -239.34278 -29.30707 -24.97947 -24.96943 -24.96943
 Alpha  occ. eigenvalues --  -20.48093 -20.48046  -4.01766  -2.65615  -2.63812
 Alpha  occ. eigenvalues --   -2.63812  -1.21452  -1.19089  -0.55126  -0.46613
 Alpha  occ. eigenvalues --   -0.46509  -0.46509  -0.39449  -0.39449  -0.20922
 Alpha  occ. eigenvalues --   -0.20922  -0.18361
 Alpha virt. eigenvalues --   -0.04683  -0.04683   0.03930   0.06128   0.06128
 Alpha virt. eigenvalues --    0.12185   0.18648   0.18648   0.22716   0.38525
 Alpha virt. eigenvalues --    1.27281   1.77470   1.77470   1.86776   1.86776
 Alpha virt. eigenvalues --    1.91611   1.96614   2.47086   2.47113   2.47113
 Alpha virt. eigenvalues --    2.62597   2.62597   3.07204   3.32798  19.03506
          Condensed to atoms (all electrons):
               1          2          3
     1  Mn  23.097555   0.317210   0.317210
     2  O    0.317210   8.316987  -0.000184
     3  O    0.317210  -0.000184   8.316987
          Atomic-Atomic Spin Densities.
               1          2          3
     1  Mn   2.979119  -0.004949  -0.004949
     2  O   -0.004949   0.020325   0.000014
     3  O   -0.004949   0.000014   0.020325
 Mulliken charges and spin densities:
               1          2
     1  Mn   1.268025   2.969221
     2  O   -0.634013   0.015389
     3  O   -0.634013   0.015389
 Sum of Mulliken charges =   0.00000   3.00000
 Mulliken charges and spin densities with hydrogens summed into heavy atoms:
               1          2
     1  Mn   1.268025   2.969221
     2  O   -0.634013   0.015389
     3  O   -0.634013   0.015389
 Electronic spatial extent (au):  <R**2>=            262.8293
 Charge=              0.0000 electrons
 Dipole moment (field-independent basis, Debye):
    X=              0.0000    Y=              0.0000    Z=              0.0000  Tot=              0.0000
 Quadrupole moment (field-independent basis, Debye-Ang):
   XX=            -23.3956   YY=            -23.3956   ZZ=            -46.3863
   XY=              0.0000   XZ=              0.0000   YZ=              0.0000
 Traceless Quadrupole moment (field-independent basis, Debye-Ang):
   XX=              7.6636   YY=              7.6636   ZZ=            -15.3272
   XY=              0.0000   XZ=              0.0000   YZ=              0.0000
 Octapole moment (field-independent basis, Debye-Ang**2):
  XXX=              0.0000  YYY=              0.0000  ZZZ=              0.0000  XYY=              0.0000
  XXY=              0.0000  XXZ=              0.0000  XZZ=              0.0000  YZZ=              0.0000
  YYZ=              0.0000  XYZ=              0.0000
 Hexadecapole moment (field-independent basis, Debye-Ang**3):
 XXXX=            -26.1427 YYYY=            -26.1427 ZZZZ=           -348.2150 XXXY=              0.0000
 XXXZ=              0.0000 YYYX=              0.0000 YYYZ=              0.0000 ZZZX=              0.0000
 ZZZY=              0.0000 XXYY=             -8.7142 XXZZ=            -48.8280 YYZZ=            -48.8280
 XXYZ=              0.0000 YYXZ=              0.0000 ZZXY=              0.0000
 N-N= 1.242059643306D+02 E-N=-3.315576499315D+03  KE= 1.287679353452D+03
                          Isotropic Fermi Contact Couplings
        Atom                 a.u.       MegaHertz       Gauss      10(-4) cm-1
     1  Mn(55)             0.67007     246.88599      88.09506      82.35230
     2  O(17)              0.00383      -0.77311      -0.27586      -0.25788
     3  O(17)              0.00383      -0.77311      -0.27586      -0.25788
 --------------------------------------------------------
       Center         ----  Spin Dipole Couplings  ----
                      3XX-RR        3YY-RR        3ZZ-RR
 --------------------------------------------------------
     1   Atom        1.305986      1.305986     -2.611972
     2   Atom       -0.092811     -0.092811      0.185623
     3   Atom       -0.092811     -0.092811      0.185623
 --------------------------------------------------------
                        XY            XZ            YZ
 --------------------------------------------------------
     1   Atom        0.000000      0.000000      0.000000
     2   Atom        0.000000      0.000000      0.000000
     3   Atom        0.000000      0.000000      0.000000
 --------------------------------------------------------


 ---------------------------------------------------------------------------------
              Anisotropic Spin Dipole Couplings in Principal Axis System
 ---------------------------------------------------------------------------------

       Atom             a.u.   MegaHertz   Gauss  10(-4) cm-1        Axes

              Baa    -2.6120  -344.628  -122.972  -114.955  0.0000  0.0000  1.0000
     1 Mn(55) Bbb     1.3060   172.314    61.486    57.478  0.9359 -0.3522  0.0000
              Bcc     1.3060   172.314    61.486    57.478  0.3522  0.9359  0.0000
 
              Baa    -0.0928     6.716     2.396     2.240  0.5729  0.8196  0.0000
     2 O(17)  Bbb    -0.0928     6.716     2.396     2.240  0.8196 -0.5729  0.0000
              Bcc     0.1856   -13.432    -4.793    -4.480  0.0000  0.0000  1.0000
 
              Baa    -0.0928     6.716     2.396     2.240  0.5729  0.8196  0.0000
     3 O(17)  Bbb    -0.0928     6.716     2.396     2.240  0.8196 -0.5729  0.0000
              Bcc     0.1856   -13.432    -4.793    -4.480  0.0000  0.0000  1.0000
 

 ---------------------------------------------------------------------------------

 No NMR shielding tensors so no spin-rotation constants.
 Leave Link  601 at Tue Sep 22 13:39:26 2015, MaxMem=    33554432 cpu:               0.2 elap:               0.2
 (Enter /home/gauss/gdvi01p/gdv/l9999.exe)
 Unable to Open any file for archive entry.
 1\1\GINC-MEDUSA\SP\ROHF\3-21G\Mn1O2(4)\DBWY\22-Sep-2015\0\\#p rohf/3-2
 1G nosymm\\MnO2 3-21G\\0,4\Mn,0,0.,0.,0.\O,0,0.,0.,1.840528\O,0,0.,0.,
 -1.840528\\Version=ES64L-GDVRevI.01+\HF=-1292.7813036\RMSD=8.864e-09\D
 ipole=0.,0.,0.\Quadrupole=5.6976853,5.6976851,-11.3953703,0.0000002,0.
 ,0.\PG=D*H [O(Mn1),C*(O1.O1)]\\@
 The archive entry for this job was punched.


 NOTHING RESEMBLES A NEW PHENOMENON AS MUCH AS A MISTAKE.

                               -- ENRICO FERMI (?)
 Job cpu time:       0 days  0 hours  0 minutes  1.2 seconds.
 Elapsed time:       0 days  0 hours  0 minutes  1.1 seconds.
 File lengths (MBytes):  RWF=      5 Int=      0 D2E=      0 Chk=      1 Scr=      1
 Normal termination of Gaussian DV at Tue Sep 22 13:39:26 2015.
