 Entering Gaussian System, Link 0=gdv
 Input=MnO2_6-31G_TD.com
 Output=MnO2_6-31G_TD.log
 Initial command:
 /home/gauss/gdvi03p/gdv/l1.exe "/home/GauScr/Gau-21253.inp" -scrdir="/home/GauScr/"
 Entering Link 1 = /home/gauss/gdvi03p/gdv/l1.exe PID=     21254.
  
 Copyright (c) 1988,1990,1992,1993,1995,1998,2003,2009,2015,
            Gaussian, Inc.  All Rights Reserved.
  
 This is the private, development version of
 the Gaussian(R) DV system of programs. It is based on
 the Gaussian(R) 09 system (copyright 2009, Gaussian, Inc.),
 the Gaussian(R) 03 system (copyright 2003, Gaussian, Inc.),
 the Gaussian(R) 98 system (copyright 1998, Gaussian, Inc.),
 the Gaussian(R) 94 system (copyright 1995, Gaussian, Inc.),
 the Gaussian 92(TM) system (copyright 1992, Gaussian, Inc.),
 the Gaussian 90(TM) system (copyright 1990, Gaussian, Inc.),
 the Gaussian 88(TM) system (copyright 1988, Gaussian, Inc.),
 the Gaussian 86(TM) system (copyright 1986, Carnegie Mellon
 University), and the Gaussian 82(TM) system (copyright 1983,
 Carnegie Mellon University). Gaussian is a federally registered
 trademark of Gaussian, Inc.
  
 This software contains proprietary and confidential information,
 including trade secrets, belonging to Gaussian, Inc.
  
 This software is provided under written license and may be
 used, copied, transmitted, or stored only in accord with that
 written license.
  
 The following legend is applicable only to US Government
 contracts under FAR:
  
                    RESTRICTED RIGHTS LEGEND
  
 Use, reproduction and disclosure by the US Government is
 subject to restrictions as set forth in subparagraphs (a)
 and (c) of the Commercial Computer Software - Restricted
 Rights clause in FAR 52.227-19.
  
 Gaussian, Inc.
 340 Quinnipiac St., Bldg. 40, Wallingford CT 06492
  
  
 ---------------------------------------------------------------
 Warning -- This program may not be used in any manner that
 competes with the business of Gaussian, Inc. or will provide
 assistance to any competitor of Gaussian, Inc.  The licensee
 of this program is prohibited from giving any competitor of
 Gaussian, Inc. access to this program.  By using this program,
 the user acknowledges that Gaussian, Inc. is engaged in the
 business of creating and licensing software in the field of
 computational chemistry and represents and warrants to the
 licensee that it is not a competitor of Gaussian, Inc. and that
 it will not use this program in any manner prohibited above.
 ---------------------------------------------------------------
  

 Cite this work as:
 Gaussian Development Version, Revision I.03+,
 M. J. Frisch, G. W. Trucks, H. B. Schlegel, G. E. Scuseria, 
 M. A. Robb, J. R. Cheeseman, G. Scalmani, V. Barone, B. Mennucci, 
 G. A. Petersson, H. Nakatsuji, M. Caricato, X. Li, H. P. Hratchian, 
 J. Bloino, B. G. Janesko, A. F. Izmaylov, A. Marenich, F. Lipparini, 
 G. Zheng, J. L. Sonnenberg, W. Liang, M. Hada, M. Ehara, K. Toyota, 
 R. Fukuda, J. Hasegawa, M. Ishida, T. Nakajima, Y. Honda, O. Kitao, 
 H. Nakai, T. Vreven, K. Throssell, J. A. Montgomery, Jr., 
 J. E. Peralta, F. Ogliaro, M. Bearpark, J. J. Heyd, E. Brothers, 
 K. N. Kudin, V. N. Staroverov, T. Keith, R. Kobayashi, J. Normand, 
 K. Raghavachari, A. Rendell, J. C. Burant, S. S. Iyengar, J. Tomasi, 
 M. Cossi, N. Rega, J. M. Millam, M. Klene, J. E. Knox, J. B. Cross, 
 V. Bakken, C. Adamo, J. Jaramillo, R. Gomperts, R. E. Stratmann, 
 O. Yazyev, A. J. Austin, R. Cammi, C. Pomelli, J. W. Ochterski, 
 R. L. Martin, K. Morokuma, V. G. Zakrzewski, G. A. Voth, 
 P. Salvador, J. J. Dannenberg, S. Dapprich, P. V. Parandekar, 
 N. J. Mayhall, A. D. Daniels, O. Farkas, J. B. Foresman, 
 J. V. Ortiz, J. Cioslowski, and D. J. Fox, 
 Gaussian, Inc., Wallingford CT, 2014.
 
 *******************************************
 Gaussian DV:  ES64L-GDVRevI.03+  2-May-2015
                 28-Oct-2015 
 *******************************************
 ---------------------------------------
 #p uhf/6-31G nosymm td(full,nstates=12)
 ---------------------------------------
 1/38=1,172=1/1;
 2/12=2,15=1,17=6,18=5,40=1/2;
 3/5=1,6=6,11=2,25=1,30=1,116=2/1,2,3,8;
 4//1;
 5/5=2,38=5/2;
 8/6=1,10=90,108=12/1,4;
 9/41=12,42=3,70=2/14;
 6/7=2,8=2,9=2,10=2/1;
 99/5=1,9=1/99;
 Leave Link    1 at Wed Oct 28 10:10:44 2015, MaxMem=           0 cpu:               0.0 elap:               0.0
 (Enter /home/gauss/gdvi03p/gdv/l101.exe)
 ----------
 MnO2 6-31G
 ----------
 Symbolic Z-matrix:
 Charge =  0 Multiplicity = 4
 Mn                    0.        0.        0. 
 O                     0.        0.        1.84053 
 O                     0.        0.       -1.84053 
 
 ITRead=  0  0  0
 MicOpt= -1 -1 -1
 NAtoms=      3 NQM=        3 NQMF=       0 NMMI=      0 NMMIF=      0
                NMic=       0 NMicF=      0.
                    Isotopes and Nuclear Properties:
 (Nuclear quadrupole moments (NQMom) in fm**2, nuclear magnetic moments (NMagM)
  in nuclear magnetons)

  Atom         1           2           3
 IAtWgt=          55          16          16
 AtmWgt=  54.9380463  15.9949146  15.9949146
 NucSpn=           5           0           0
 AtZEff=   0.0000000   0.0000000   0.0000000
 NQMom=   33.0000000   0.0000000   0.0000000
 NMagM=    3.4532000   0.0000000   0.0000000
 AtZNuc=  25.0000000   8.0000000   8.0000000
 Leave Link  101 at Wed Oct 28 10:10:45 2015, MaxMem=    33554432 cpu:               0.1 elap:               0.1
 (Enter /home/gauss/gdvi03p/gdv/l202.exe)
                          Input orientation:                          
 ---------------------------------------------------------------------
 Center     Atomic      Atomic             Coordinates (Angstroms)
 Number     Number       Type             X           Y           Z
 ---------------------------------------------------------------------
      1         25           0        0.000000    0.000000    0.000000
      2          8           0        0.000000    0.000000    1.840528
      3          8           0        0.000000    0.000000   -1.840528
 ---------------------------------------------------------------------
                    Distance matrix (angstroms):
                    1          2          3
     1  Mn   0.000000
     2  O    1.840528   0.000000
     3  O    1.840528   3.681056   0.000000
 Symmetry turned off by external request.
 Stoichiometry    MnO2(4)
 Framework group  D*H[O(Mn),C*(O.O)]
 Deg. of freedom     1
 Full point group                 D*H     NOp   8
 Rotational constants (GHZ):      0.0000000      4.6635906      4.6635906
 Leave Link  202 at Wed Oct 28 10:10:45 2015, MaxMem=    33554432 cpu:               0.0 elap:               0.0
 (Enter /home/gauss/gdvi03p/gdv/l301.exe)
 Standard basis: 6-31G (6D, 7F)
 Ernie: Thresh=  0.10000D-02 Tol=  0.10000D-05 Strict=F.
    47 basis functions,   138 primitive gaussians,    47 cartesian basis functions
    22 alpha electrons       19 beta electrons
       nuclear repulsion energy       124.2059643306 Hartrees.
 IExCor=    0 DFT=F Ex=HF Corr=None ExCW=0 ScaHFX=  1.000000
 ScaDFX=  1.000000  1.000000  1.000000  1.000000 ScalE2=  1.000000  1.000000
 IRadAn=      0 IRanWt=     -1 IRanGd=            0 ICorTp=0 IEmpDi=  4
 NAtoms=    3 NActive=    3 NUniq=    3 SFac= 1.00D+00 NAtFMM=   60 NAOKFM=F Big=F
 Integral buffers will be    131072 words long.
 Raffenetti 2 integral format.
 Two-electron integral symmetry is turned off.
 Leave Link  301 at Wed Oct 28 10:10:45 2015, MaxMem=    33554432 cpu:               0.1 elap:               0.1
 (Enter /home/gauss/gdvi03p/gdv/l302.exe)
 NPDir=0 NMtPBC=     1 NCelOv=     1 NCel=       1 NClECP=     1 NCelD=      1
         NCelK=      1 NCelE2=     1 NClLst=     1 CellRange=     0.0.
 One-electron integrals computed using PRISM.
 One-electron integral symmetry used in STVInt
 NBasis=    47 RedAO= T EigKep=  1.96D-03  NBF=    47
 NBsUse=    47 1.00D-06 EigRej= -1.00D+00 NBFU=    47
 Leave Link  302 at Wed Oct 28 10:10:45 2015, MaxMem=    33554432 cpu:               0.1 elap:               0.1
 (Enter /home/gauss/gdvi03p/gdv/l303.exe)
 DipDrv:  MaxL=1.
 Leave Link  303 at Wed Oct 28 10:10:45 2015, MaxMem=    33554432 cpu:               0.0 elap:               0.0
 (Enter /home/gauss/gdvi03p/gdv/l308.exe)
 Leave Link  308 at Wed Oct 28 10:10:45 2015, MaxMem=    33554432 cpu:               0.0 elap:               0.0
 (Enter /home/gauss/gdvi03p/gdv/l401.exe)
 ExpMin= 3.84D-02 ExpMax= 5.63D+04 ExpMxC= 8.46D+03 IAcc=3 IRadAn=         5 AccDes= 0.00D+00
 Harris functional with IExCor=  205 and IRadAn=       5 diagonalized for initial guess.
 HarFok:  IExCor=  205 AccDes= 0.00D+00 IRadAn=         5 IDoV= 1 UseB2=F ITyADJ=14
 ICtDFT=  3500011 ScaDFX=  1.000000  1.000000  1.000000  1.000000
 FoFCou: FMM=F IPFlag=           0 FMFlag=      100000 FMFlg1=           0
         NFxFlg=           0 DoJE=T BraDBF=F KetDBF=T FulRan=T
         wScrn=  0.000000 ICntrl=       500 IOpCl=  0 I1Cent=   200000004 NGrid=           0
         NMat0=    1 NMatS0=      1 NMatT0=    0 NMatD0=    1 NMtDS0=    0 NMtDT0=    0
 Symmetry not used in FoFCou.
 Harris En= -1298.75086608616    
 JPrj=0 DoOrth=F DoCkMO=F.
 Initial guess <Sx>= 0.0000 <Sy>= 0.0000 <Sz>= 1.5000 <S**2>= 3.7500 S= 1.5000
 Leave Link  401 at Wed Oct 28 10:10:45 2015, MaxMem=    33554432 cpu:               0.3 elap:               0.3
 (Enter /home/gauss/gdvi03p/gdv/l502.exe)
 Keep R1 and R2 ints in memory in canonical form, NReq=2110833.
 FoFCou: FMM=F IPFlag=           0 FMFlag=           0 FMFlg1=           0
         NFxFlg=           0 DoJE=F BraDBF=F KetDBF=F FulRan=T
         wScrn=  0.000000 ICntrl=       600 IOpCl=  0 I1Cent=           0 NGrid=           0
         NMat0=    1 NMatS0=   1128 NMatT0=    0 NMatD0=    1 NMtDS0=    0 NMtDT0=    0
 Symmetry not used in FoFCou.
 Two-electron integral symmetry not used.
 UHF open shell SCF:
 Using DIIS extrapolation, IDIIS=  1040.
 NGot=    33554432 LenX=    32275732 LenY=    32273082
 Requested convergence on RMS density matrix=1.00D-08 within 128 cycles.
 Requested convergence on MAX density matrix=1.00D-06.
 Requested convergence on             energy=1.00D-06.
 No special actions if energy rises.

 Cycle   1  Pass 1  IDiag  1:
 E= -1297.78319296709    
 DIIS: error= 2.19D-01 at cycle   1 NSaved=   1.
 NSaved= 1 IEnMin= 1 EnMin= -1297.78319296709     IErMin= 1 ErrMin= 2.19D-01
 ErrMax= 2.19D-01  0.00D+00 EMaxC= 1.00D-01 BMatC= 6.07D+00 BMatP= 6.07D+00
 IDIUse=3 WtCom= 0.00D+00 WtEn= 1.00D+00
 Coeff-Com:  0.100D+01
 Coeff-En:   0.100D+01
 Coeff:      0.100D+01
 Gap=     0.885 Goal=   None    Shift=    0.000
 Gap=    -0.315 Goal=   None    Shift=    0.000
 GapD=   -0.315 DampG=0.250 DampE=0.125 DampFc=0.1250 IDamp=-1.
 Damping current iteration by 1.25D-01
 RMSDP=5.28D-02 MaxDP=6.50D-01              OVMax= 9.91D-01

 Cycle   2  Pass 1  IDiag  1:
 E= -1298.15212800984     Delta-E=       -0.368935042751 Rises=F Damp=T
 DIIS: error= 9.84D-02 at cycle   2 NSaved=   2.
 NSaved= 2 IEnMin= 2 EnMin= -1298.15212800984     IErMin= 2 ErrMin= 9.84D-02
 ErrMax= 9.84D-02  0.00D+00 EMaxC= 1.00D-01 BMatC= 1.63D+00 BMatP= 6.07D+00
 IDIUse=3 WtCom= 1.59D-02 WtEn= 9.84D-01
 Coeff-Com: -0.892D+00 0.189D+01
 Coeff-En:   0.000D+00 0.100D+01
 Coeff:     -0.142D-01 0.101D+01
 Gap=     0.146 Goal=   None    Shift=    0.000
 Gap=    -0.001 Goal=   None    Shift=    0.000
 RMSDP=2.32D-02 MaxDP=2.81D-01 DE=-3.69D-01 OVMax= 9.91D-01

 Cycle   3  Pass 1  IDiag  1:
 E= -1297.43136194976     Delta-E=        0.720766060075 Rises=F Damp=F
 DIIS: error= 3.06D-01 at cycle   3 NSaved=   3.
 NSaved= 3 IEnMin= 2 EnMin= -1298.15212800984     IErMin= 2 ErrMin= 9.84D-02
 ErrMax= 3.06D-01  0.00D+00 EMaxC= 1.00D-01 BMatC= 8.99D+00 BMatP= 1.63D+00
 IDIUse=2 WtCom= 0.00D+00 WtEn= 1.00D+00
 EnCoef did   100 forward-backward iterations
 Coeff-En:   0.539D+00 0.125D-01 0.449D+00
 Coeff:      0.539D+00 0.125D-01 0.449D+00
 Gap=     0.242 Goal=   None    Shift=    0.000
 Gap=     0.531 Goal=   None    Shift=    0.000
 RMSDP=1.51D-02 MaxDP=2.33D-01 DE= 7.21D-01 OVMax= 4.07D-01

 Cycle   4  Pass 1  IDiag  1:
 E= -1298.97951898681     Delta-E=       -1.548157037044 Rises=F Damp=F
 DIIS: error= 2.26D-02 at cycle   4 NSaved=   4.
 NSaved= 4 IEnMin= 4 EnMin= -1298.97951898681     IErMin= 4 ErrMin= 2.26D-02
 ErrMax= 2.26D-02  0.00D+00 EMaxC= 1.00D-01 BMatC= 3.93D-02 BMatP= 1.63D+00
 IDIUse=3 WtCom= 7.74D-01 WtEn= 2.26D-01
 Coeff-Com: -0.325D+00 0.466D+00-0.702D-01 0.929D+00
 Coeff-En:   0.000D+00 0.000D+00 0.000D+00 0.100D+01
 Coeff:     -0.252D+00 0.360D+00-0.544D-01 0.945D+00
 Gap=     0.310 Goal=   None    Shift=    0.000
 Gap=     0.435 Goal=   None    Shift=    0.000
 RMSDP=3.42D-03 MaxDP=5.01D-02 DE=-1.55D+00 OVMax= 9.55D-02

 Cycle   5  Pass 1  IDiag  1:
 E= -1299.00677164385     Delta-E=       -0.027252657044 Rises=F Damp=F
 DIIS: error= 5.17D-02 at cycle   5 NSaved=   5.
 NSaved= 5 IEnMin= 5 EnMin= -1299.00677164385     IErMin= 4 ErrMin= 2.26D-02
 ErrMax= 5.17D-02  0.00D+00 EMaxC= 1.00D-01 BMatC= 9.12D-02 BMatP= 3.93D-02
 IDIUse=2 WtCom= 0.00D+00 WtEn= 1.00D+00
 Coeff-En:   0.000D+00 0.000D+00 0.000D+00 0.000D+00 0.100D+01
 Coeff:      0.000D+00 0.000D+00 0.000D+00 0.000D+00 0.100D+01
 Gap=     0.222 Goal=   None    Shift=    0.000
 Gap=     0.393 Goal=   None    Shift=    0.000
 RMSDP=5.87D-03 MaxDP=1.28D-01 DE=-2.73D-02 OVMax= 2.29D-01

 Cycle   6  Pass 1  IDiag  1:
 E= -1299.01945903655     Delta-E=       -0.012687392701 Rises=F Damp=F
 DIIS: error= 8.45D-02 at cycle   6 NSaved=   6.
 NSaved= 6 IEnMin= 6 EnMin= -1299.01945903655     IErMin= 4 ErrMin= 2.26D-02
 ErrMax= 8.45D-02  0.00D+00 EMaxC= 1.00D-01 BMatC= 3.93D-01 BMatP= 3.93D-02
 IDIUse=2 WtCom= 0.00D+00 WtEn= 1.00D+00
 Coeff-En:   0.000D+00 0.000D+00 0.000D+00 0.000D+00 0.382D+00 0.618D+00
 Coeff:      0.000D+00 0.000D+00 0.000D+00 0.000D+00 0.382D+00 0.618D+00
 Gap=     0.279 Goal=   None    Shift=    0.000
 Gap=     0.535 Goal=   None    Shift=    0.000
 RMSDP=5.87D-03 MaxDP=8.22D-02 DE=-1.27D-02 OVMax= 1.64D-01

 Cycle   7  Pass 1  IDiag  1:
 E= -1299.08695229418     Delta-E=       -0.067493257624 Rises=F Damp=F
 DIIS: error= 6.75D-02 at cycle   7 NSaved=   7.
 NSaved= 7 IEnMin= 7 EnMin= -1299.08695229418     IErMin= 4 ErrMin= 2.26D-02
 ErrMax= 6.75D-02  0.00D+00 EMaxC= 1.00D-01 BMatC= 1.63D-01 BMatP= 3.93D-02
 IDIUse=2 WtCom= 0.00D+00 WtEn= 1.00D+00
 Coeff-En:   0.000D+00 0.000D+00 0.000D+00 0.000D+00 0.000D+00 0.109D+00
 Coeff-En:   0.891D+00
 Coeff:      0.000D+00 0.000D+00 0.000D+00 0.000D+00 0.000D+00 0.109D+00
 Coeff:      0.891D+00
 Gap=     0.207 Goal=   None    Shift=    0.000
 Gap=     0.467 Goal=   None    Shift=    0.000
 RMSDP=5.84D-03 MaxDP=1.28D-01 DE=-6.75D-02 OVMax= 2.20D-01

 Cycle   8  Pass 1  IDiag  1:
 E= -1299.14397765982     Delta-E=       -0.057025365643 Rises=F Damp=F
 DIIS: error= 5.66D-02 at cycle   8 NSaved=   8.
 NSaved= 8 IEnMin= 8 EnMin= -1299.14397765982     IErMin= 4 ErrMin= 2.26D-02
 ErrMax= 5.66D-02  0.00D+00 EMaxC= 1.00D-01 BMatC= 2.25D-01 BMatP= 3.93D-02
 IDIUse=2 WtCom= 0.00D+00 WtEn= 1.00D+00
 Coeff-En:   0.000D+00 0.000D+00 0.000D+00 0.000D+00 0.000D+00 0.000D+00
 Coeff-En:   0.000D+00 0.100D+01
 Coeff:      0.000D+00 0.000D+00 0.000D+00 0.000D+00 0.000D+00 0.000D+00
 Coeff:      0.000D+00 0.100D+01
 Gap=     0.247 Goal=   None    Shift=    0.000
 Gap=     0.618 Goal=   None    Shift=    0.000
 RMSDP=6.28D-03 MaxDP=1.02D-01 DE=-5.70D-02 OVMax= 1.30D-01

 Cycle   9  Pass 1  IDiag  1:
 E= -1299.18156008520     Delta-E=       -0.037582425384 Rises=F Damp=F
 DIIS: error= 5.38D-02 at cycle   9 NSaved=   9.
 NSaved= 9 IEnMin= 9 EnMin= -1299.18156008520     IErMin= 4 ErrMin= 2.26D-02
 ErrMax= 5.38D-02  0.00D+00 EMaxC= 1.00D-01 BMatC= 1.66D-01 BMatP= 3.93D-02
 IDIUse=2 WtCom= 0.00D+00 WtEn= 1.00D+00
 Coeff-En:   0.000D+00 0.000D+00 0.000D+00 0.000D+00 0.000D+00 0.000D+00
 Coeff-En:   0.000D+00 0.744D-01 0.926D+00
 Coeff:      0.000D+00 0.000D+00 0.000D+00 0.000D+00 0.000D+00 0.000D+00
 Coeff:      0.000D+00 0.744D-01 0.926D+00
 Gap=     0.218 Goal=   None    Shift=    0.000
 Gap=     0.506 Goal=   None    Shift=    0.000
 RMSDP=5.45D-03 MaxDP=9.00D-02 DE=-3.76D-02 OVMax= 1.52D-01

 Cycle  10  Pass 1  IDiag  1:
 E= -1299.21581748914     Delta-E=       -0.034257403941 Rises=F Damp=F
 DIIS: error= 3.00D-02 at cycle  10 NSaved=  10.
 NSaved=10 IEnMin=10 EnMin= -1299.21581748914     IErMin= 4 ErrMin= 2.26D-02
 ErrMax= 3.00D-02  0.00D+00 EMaxC= 1.00D-01 BMatC= 1.38D-01 BMatP= 3.93D-02
 IDIUse=2 WtCom= 0.00D+00 WtEn= 1.00D+00
 Coeff-En:   0.000D+00 0.000D+00 0.000D+00 0.000D+00 0.000D+00 0.000D+00
 Coeff-En:   0.000D+00 0.000D+00 0.777D-01 0.922D+00
 Coeff:      0.000D+00 0.000D+00 0.000D+00 0.000D+00 0.000D+00 0.000D+00
 Coeff:      0.000D+00 0.000D+00 0.777D-01 0.922D+00
 Gap=     0.233 Goal=   None    Shift=    0.000
 Gap=     0.624 Goal=   None    Shift=    0.000
 RMSDP=4.43D-03 MaxDP=7.45D-02 DE=-3.43D-02 OVMax= 5.85D-02

 Cycle  11  Pass 1  IDiag  1:
 E= -1299.23794203644     Delta-E=       -0.022124547300 Rises=F Damp=F
 DIIS: error= 2.35D-02 at cycle  11 NSaved=  11.
 NSaved=11 IEnMin=11 EnMin= -1299.23794203644     IErMin= 4 ErrMin= 2.26D-02
 ErrMax= 2.35D-02  0.00D+00 EMaxC= 1.00D-01 BMatC= 4.72D-02 BMatP= 3.93D-02
 IDIUse=2 WtCom= 0.00D+00 WtEn= 1.00D+00
 Coeff-En:   0.000D+00 0.000D+00 0.000D+00 0.000D+00 0.000D+00 0.000D+00
 Coeff-En:   0.000D+00 0.000D+00 0.000D+00 0.000D+00 0.100D+01
 Coeff:      0.000D+00 0.000D+00 0.000D+00 0.000D+00 0.000D+00 0.000D+00
 Coeff:      0.000D+00 0.000D+00 0.000D+00 0.000D+00 0.100D+01
 Gap=     0.236 Goal=   None    Shift=    0.000
 Gap=     0.554 Goal=   None    Shift=    0.000
 RMSDP=3.05D-03 MaxDP=4.35D-02 DE=-2.21D-02 OVMax= 6.86D-02

 Cycle  12  Pass 1  IDiag  1:
 E= -1299.24747382683     Delta-E=       -0.009531790385 Rises=F Damp=F
 DIIS: error= 1.41D-02 at cycle  12 NSaved=  12.
 NSaved=12 IEnMin=12 EnMin= -1299.24747382683     IErMin=12 ErrMin= 1.41D-02
 ErrMax= 1.41D-02  0.00D+00 EMaxC= 1.00D-01 BMatC= 3.84D-02 BMatP= 3.93D-02
 IDIUse=3 WtCom= 8.59D-01 WtEn= 1.41D-01
 Coeff-Com: -0.137D-02 0.608D-02 0.106D-01-0.772D-01 0.119D+00-0.183D+00
 Coeff-Com:  0.297D+00 0.775D+00-0.897D+00-0.179D+01 0.878D+00 0.187D+01
 Coeff-En:   0.000D+00 0.000D+00 0.000D+00 0.000D+00 0.000D+00 0.000D+00
 Coeff-En:   0.000D+00 0.000D+00 0.000D+00 0.000D+00 0.483D-01 0.952D+00
 Coeff:     -0.117D-02 0.523D-02 0.913D-02-0.664D-01 0.103D+00-0.158D+00
 Coeff:      0.255D+00 0.666D+00-0.770D+00-0.154D+01 0.761D+00 0.174D+01
 Gap=     0.232 Goal=   None    Shift=    0.000
 Gap=     0.612 Goal=   None    Shift=    0.000
 RMSDP=1.92D-03 MaxDP=2.38D-02 DE=-9.53D-03 OVMax= 2.32D-02

 Cycle  13  Pass 1  IDiag  1:
 E= -1299.25672662037     Delta-E=       -0.009252793537 Rises=F Damp=F
 DIIS: error= 3.42D-03 at cycle  13 NSaved=  13.
 NSaved=13 IEnMin=13 EnMin= -1299.25672662037     IErMin=13 ErrMin= 3.42D-03
 ErrMax= 3.42D-03  0.00D+00 EMaxC= 1.00D-01 BMatC= 8.62D-04 BMatP= 3.84D-02
 IDIUse=3 WtCom= 9.66D-01 WtEn= 3.42D-02
 Coeff-Com:  0.851D-02-0.103D-01 0.746D-05 0.328D-01-0.485D-01 0.101D+00
 Coeff-Com: -0.131D+00-0.378D+00 0.400D+00 0.399D+00-0.662D+00-0.365D+00
 Coeff-Com:  0.165D+01
 Coeff-En:   0.000D+00 0.000D+00 0.000D+00 0.000D+00 0.000D+00 0.000D+00
 Coeff-En:   0.000D+00 0.000D+00 0.000D+00 0.000D+00 0.000D+00 0.000D+00
 Coeff-En:   0.100D+01
 Coeff:      0.822D-02-0.990D-02 0.721D-05 0.316D-01-0.468D-01 0.976D-01
 Coeff:     -0.127D+00-0.365D+00 0.386D+00 0.385D+00-0.639D+00-0.353D+00
 Coeff:      0.163D+01
 Gap=     0.243 Goal=   None    Shift=    0.000
 Gap=     0.631 Goal=   None    Shift=    0.000
 RMSDP=1.57D-03 MaxDP=1.65D-02 DE=-9.25D-03 OVMax= 3.22D-02

 Cycle  14  Pass 1  IDiag  1:
 E= -1299.25788793765     Delta-E=       -0.001161317280 Rises=F Damp=F
 DIIS: error= 1.61D-03 at cycle  14 NSaved=  14.
 NSaved=14 IEnMin=14 EnMin= -1299.25788793765     IErMin=14 ErrMin= 1.61D-03
 ErrMax= 1.61D-03  0.00D+00 EMaxC= 1.00D-01 BMatC= 2.07D-04 BMatP= 8.62D-04
 IDIUse=3 WtCom= 9.84D-01 WtEn= 1.61D-02
 Coeff-Com: -0.252D-02 0.334D-02-0.335D-03-0.611D-02 0.644D-02 0.234D-01
 Coeff-Com: -0.155D-01-0.137D+00 0.704D-01 0.332D+00-0.120D+00-0.375D+00
 Coeff-Com:  0.426D+00 0.794D+00
 Coeff-En:   0.000D+00 0.000D+00 0.000D+00 0.000D+00 0.000D+00 0.000D+00
 Coeff-En:   0.000D+00 0.000D+00 0.000D+00 0.000D+00 0.000D+00 0.000D+00
 Coeff-En:   0.000D+00 0.100D+01
 Coeff:     -0.248D-02 0.328D-02-0.329D-03-0.601D-02 0.634D-02 0.230D-01
 Coeff:     -0.152D-01-0.135D+00 0.693D-01 0.327D+00-0.118D+00-0.369D+00
 Coeff:      0.419D+00 0.797D+00
 Gap=     0.241 Goal=   None    Shift=    0.000
 Gap=     0.627 Goal=   None    Shift=    0.000
 RMSDP=3.12D-04 MaxDP=3.39D-03 DE=-1.16D-03 OVMax= 6.67D-03

 Cycle  15  Pass 1  IDiag  1:
 E= -1299.25801947484     Delta-E=       -0.000131537190 Rises=F Damp=F
 DIIS: error= 2.63D-04 at cycle  15 NSaved=  15.
 NSaved=15 IEnMin=15 EnMin= -1299.25801947484     IErMin=15 ErrMin= 2.63D-04
 ErrMax= 2.63D-04  0.00D+00 EMaxC= 1.00D-01 BMatC= 4.74D-06 BMatP= 2.07D-04
 IDIUse=3 WtCom= 9.97D-01 WtEn= 2.63D-03
 Coeff-Com: -0.721D-03 0.640D-03-0.256D-04-0.181D-04 0.128D-02-0.650D-02
 Coeff-Com: -0.284D-02 0.297D-01 0.508D-02-0.508D-01 0.772D-02 0.534D-01
 Coeff-Com: -0.110D+00-0.294D+00 0.137D+01
 Coeff-En:   0.000D+00 0.000D+00 0.000D+00 0.000D+00 0.000D+00 0.000D+00
 Coeff-En:   0.000D+00 0.000D+00 0.000D+00 0.000D+00 0.000D+00 0.000D+00
 Coeff-En:   0.000D+00 0.000D+00 0.100D+01
 Coeff:     -0.719D-03 0.638D-03-0.255D-04-0.181D-04 0.127D-02-0.649D-02
 Coeff:     -0.284D-02 0.296D-01 0.507D-02-0.507D-01 0.770D-02 0.533D-01
 Coeff:     -0.109D+00-0.293D+00 0.137D+01
 Gap=     0.240 Goal=   None    Shift=    0.000
 Gap=     0.627 Goal=   None    Shift=    0.000
 RMSDP=6.76D-05 MaxDP=8.18D-04 DE=-1.32D-04 OVMax= 1.99D-03

 Cycle  16  Pass 1  IDiag  1:
 E= -1299.25802358394     Delta-E=       -0.000004109099 Rises=F Damp=F
 DIIS: error= 3.13D-05 at cycle  16 NSaved=  16.
 NSaved=16 IEnMin=16 EnMin= -1299.25802358394     IErMin=16 ErrMin= 3.13D-05
 ErrMax= 3.13D-05  0.00D+00 EMaxC= 1.00D-01 BMatC= 1.03D-07 BMatP= 4.74D-06
 IDIUse=1 WtCom= 1.00D+00 WtEn= 0.00D+00
 Coeff-Com: -0.475D-04 0.749D-04-0.186D-04-0.589D-04-0.129D-02 0.168D-02
 Coeff-Com:  0.215D-03-0.511D-02 0.147D-02 0.533D-02-0.336D-02-0.328D-02
 Coeff-Com:  0.639D-02 0.520D-01-0.295D+00 0.124D+01
 Coeff:     -0.475D-04 0.749D-04-0.186D-04-0.589D-04-0.129D-02 0.168D-02
 Coeff:      0.215D-03-0.511D-02 0.147D-02 0.533D-02-0.336D-02-0.328D-02
 Coeff:      0.639D-02 0.520D-01-0.295D+00 0.124D+01
 Gap=     0.241 Goal=   None    Shift=    0.000
 Gap=     0.627 Goal=   None    Shift=    0.000
 RMSDP=1.62D-05 MaxDP=1.69D-04 DE=-4.11D-06 OVMax= 3.18D-04

 Cycle  17  Pass 1  IDiag  1:
 E= -1299.25802357154     Delta-E=        0.000000012398 Rises=F Damp=F
 DIIS: error= 4.03D-05 at cycle  17 NSaved=  17.
 NSaved=17 IEnMin=16 EnMin= -1299.25802358394     IErMin=16 ErrMin= 3.13D-05
 ErrMax= 4.03D-05  0.00D+00 EMaxC= 1.00D-01 BMatC= 1.19D-07 BMatP= 1.03D-07
 IDIUse=1 WtCom= 1.00D+00 WtEn= 0.00D+00
 Coeff-Com: -0.462D-05-0.211D-05 0.133D-04 0.531D-03-0.218D-03-0.496D-03
 Coeff-Com: -0.761D-03 0.586D-03 0.219D-02 0.422D-03-0.353D-02-0.166D-02
 Coeff-Com:  0.154D-01-0.336D-01 0.104D+00-0.673D+00 0.159D+01
 Coeff:     -0.462D-05-0.211D-05 0.133D-04 0.531D-03-0.218D-03-0.496D-03
 Coeff:     -0.761D-03 0.586D-03 0.219D-02 0.422D-03-0.353D-02-0.166D-02
 Coeff:      0.154D-01-0.336D-01 0.104D+00-0.673D+00 0.159D+01
 Gap=     0.241 Goal=   None    Shift=    0.000
 Gap=     0.627 Goal=   None    Shift=    0.000
 RMSDP=1.07D-05 MaxDP=1.11D-04 DE= 1.24D-08 OVMax= 2.03D-04

 Cycle  18  Pass 1  IDiag  1:
 E= -1299.25802366587     Delta-E=       -0.000000094332 Rises=F Damp=F
 DIIS: error= 3.85D-06 at cycle  18 NSaved=  18.
 NSaved=18 IEnMin=18 EnMin= -1299.25802366587     IErMin=18 ErrMin= 3.85D-06
 ErrMax= 3.85D-06  0.00D+00 EMaxC= 1.00D-01 BMatC= 1.78D-09 BMatP= 1.03D-07
 IDIUse=1 WtCom= 1.00D+00 WtEn= 0.00D+00
 Coeff-Com:  0.126D-04-0.181D-04 0.566D-05-0.102D-03-0.118D-03-0.180D-03
 Coeff-Com:  0.697D-03 0.784D-03-0.130D-02-0.134D-02 0.194D-02 0.156D-02
 Coeff-Com: -0.849D-02-0.379D-02 0.274D-01 0.408D-01-0.439D+00 0.138D+01
 Coeff:      0.126D-04-0.181D-04 0.566D-05-0.102D-03-0.118D-03-0.180D-03
 Coeff:      0.697D-03 0.784D-03-0.130D-02-0.134D-02 0.194D-02 0.156D-02
 Coeff:     -0.849D-02-0.379D-02 0.274D-01 0.408D-01-0.439D+00 0.138D+01
 Gap=     0.241 Goal=   None    Shift=    0.000
 Gap=     0.627 Goal=   None    Shift=    0.000
 RMSDP=1.20D-06 MaxDP=1.35D-05 DE=-9.43D-08 OVMax= 2.44D-05

 Cycle  19  Pass 1  IDiag  1:
 E= -1299.25802366677     Delta-E=       -0.000000000897 Rises=F Damp=F
 DIIS: error= 4.03D-06 at cycle  19 NSaved=  19.
 NSaved=19 IEnMin=19 EnMin= -1299.25802366677     IErMin=18 ErrMin= 3.85D-06
 ErrMax= 4.03D-06  0.00D+00 EMaxC= 1.00D-01 BMatC= 1.27D-09 BMatP= 1.78D-09
 IDIUse=1 WtCom= 1.00D+00 WtEn= 0.00D+00
 Coeff-Com: -0.867D-05 0.108D-04 0.544D-05-0.396D-04 0.300D-03-0.256D-03
 Coeff-Com: -0.466D-03 0.626D-03 0.407D-03-0.719D-03-0.404D-03 0.414D-03
 Coeff-Com:  0.911D-03 0.713D-02-0.221D-01 0.535D-01-0.708D-01-0.159D+00
 Coeff-Com:  0.119D+01
 Coeff:     -0.867D-05 0.108D-04 0.544D-05-0.396D-04 0.300D-03-0.256D-03
 Coeff:     -0.466D-03 0.626D-03 0.407D-03-0.719D-03-0.404D-03 0.414D-03
 Coeff:      0.911D-03 0.713D-02-0.221D-01 0.535D-01-0.708D-01-0.159D+00
 Coeff:      0.119D+01
 Gap=     0.241 Goal=   None    Shift=    0.000
 Gap=     0.627 Goal=   None    Shift=    0.000
 RMSDP=5.49D-07 MaxDP=6.65D-06 DE=-8.97D-10 OVMax= 1.24D-05

 Cycle  20  Pass 1  IDiag  1:
 E= -1299.25802366703     Delta-E=       -0.000000000265 Rises=F Damp=F
 DIIS: error= 9.05D-07 at cycle  20 NSaved=  20.
 NSaved=20 IEnMin=20 EnMin= -1299.25802366703     IErMin=20 ErrMin= 9.05D-07
 ErrMax= 9.05D-07  0.00D+00 EMaxC= 1.00D-01 BMatC= 5.91D-11 BMatP= 1.27D-09
 IDIUse=1 WtCom= 1.00D+00 WtEn= 0.00D+00
 Coeff-Com: -0.172D-06 0.203D-06 0.663D-06 0.104D-04-0.160D-04-0.235D-04
 Coeff-Com:  0.334D-04 0.445D-04-0.362D-04-0.159D-04-0.390D-05-0.125D-04
 Coeff-Com:  0.404D-03-0.241D-02 0.649D-02-0.344D-01 0.990D-01-0.175D+00
 Coeff-Com: -0.189D+00 0.129D+01
 Coeff:     -0.172D-06 0.203D-06 0.663D-06 0.104D-04-0.160D-04-0.235D-04
 Coeff:      0.334D-04 0.445D-04-0.362D-04-0.159D-04-0.390D-05-0.125D-04
 Coeff:      0.404D-03-0.241D-02 0.649D-02-0.344D-01 0.990D-01-0.175D+00
 Coeff:     -0.189D+00 0.129D+01
 Gap=     0.241 Goal=   None    Shift=    0.000
 Gap=     0.627 Goal=   None    Shift=    0.000
 RMSDP=1.95D-07 MaxDP=2.13D-06 DE=-2.65D-10 OVMax= 3.86D-06

 Cycle  21  Pass 1  IDiag  1:
 E= -1299.25802366709     Delta-E=       -0.000000000059 Rises=F Damp=F
 DIIS: error= 1.79D-07 at cycle  21 NSaved=  20.
 NSaved=20 IEnMin=20 EnMin= -1299.25802366709     IErMin=20 ErrMin= 1.79D-07
 ErrMax= 1.79D-07  0.00D+00 EMaxC= 1.00D-01 BMatC= 3.27D-12 BMatP= 5.91D-11
 IDIUse=1 WtCom= 1.00D+00 WtEn= 0.00D+00
 Coeff-Com: -0.424D-07 0.346D-08-0.143D-05 0.513D-05-0.372D-05-0.817D-05
 Coeff-Com:  0.158D-04 0.609D-05-0.255D-04 0.568D-05 0.243D-04-0.122D-03
 Coeff-Com:  0.395D-03-0.684D-03 0.487D-02-0.178D-01 0.434D-01-0.227D-02
 Coeff-Com: -0.396D+00 0.137D+01
 Coeff:     -0.424D-07 0.346D-08-0.143D-05 0.513D-05-0.372D-05-0.817D-05
 Coeff:      0.158D-04 0.609D-05-0.255D-04 0.568D-05 0.243D-04-0.122D-03
 Coeff:      0.395D-03-0.684D-03 0.487D-02-0.178D-01 0.434D-01-0.227D-02
 Coeff:     -0.396D+00 0.137D+01
 Gap=     0.241 Goal=   None    Shift=    0.000
 Gap=     0.627 Goal=   None    Shift=    0.000
 RMSDP=4.47D-08 MaxDP=7.86D-07 DE=-5.91D-11 OVMax= 6.83D-07

 Cycle  22  Pass 1  IDiag  1:
 E= -1299.25802366709     Delta-E=        0.000000000000 Rises=F Damp=F
 DIIS: error= 9.21D-09 at cycle  22 NSaved=  20.
 NSaved=20 IEnMin=20 EnMin= -1299.25802366709     IErMin=20 ErrMin= 9.21D-09
 ErrMax= 9.21D-09  0.00D+00 EMaxC= 1.00D-01 BMatC= 1.05D-14 BMatP= 3.27D-12
 IDIUse=1 WtCom= 1.00D+00 WtEn= 0.00D+00
 Large coefficients: NSaved= 20 BigCof=    0.00 CofMax=   10.00 Det=-9.10D-15
 Inversion failed.  Reducing to 19 matrices.
 Large coefficients: NSaved= 19 BigCof=    0.00 CofMax=   10.00 Det=-9.47D-15
 Inversion failed.  Reducing to 18 matrices.
 Coeff-Com:  0.254D-06 0.807D-07-0.374D-06-0.611D-06 0.461D-06 0.981D-06
 Coeff-Com: -0.165D-05-0.122D-05 0.150D-04-0.330D-04 0.411D-04-0.422D-03
 Coeff-Com:  0.168D-02-0.479D-02 0.411D-02 0.491D-01-0.269D+00 0.122D+01
 Coeff:      0.254D-06 0.807D-07-0.374D-06-0.611D-06 0.461D-06 0.981D-06
 Coeff:     -0.165D-05-0.122D-05 0.150D-04-0.330D-04 0.411D-04-0.422D-03
 Coeff:      0.168D-02-0.479D-02 0.411D-02 0.491D-01-0.269D+00 0.122D+01
 Gap=     0.241 Goal=   None    Shift=    0.000
 Gap=     0.627 Goal=   None    Shift=    0.000
 RMSDP=2.53D-09 MaxDP=6.21D-08 DE=-4.55D-13 OVMax= 2.99D-08

 SCF Done:  E(UHF) =  -1299.25802367     A.U. after   22 cycles
            NFock= 22  Conv=0.25D-08     -V/T= 2.0003
 <Sx>= 0.0000 <Sy>= 0.0000 <Sz>= 1.5000 <S**2>= 6.1330 S= 2.0265
 <L.S>= 0.000000000000E+00
 KE= 1.298866297663D+03 PE=-3.336818208781D+03 EE= 6.144879231204D+02
 Annihilation of the first spin contaminant:
 S**2 before annihilation     6.1330,   after     7.5032
 Leave Link  502 at Wed Oct 28 10:10:46 2015, MaxMem=    33554432 cpu:               0.3 elap:               0.3
 (Enter /home/gauss/gdvi03p/gdv/l801.exe)
 Range of M.O.s used for correlation:     1    47
 NBasis=    47 NAE=    22 NBE=    19 NFC=     0 NFV=     0
 NROrb=     47 NOA=    22 NOB=    19 NVA=    25 NVB=    28

 **** Warning!!: The largest alpha MO coefficient is  0.17733369D+02


 **** Warning!!: The largest beta MO coefficient is  0.17736822D+02

 Leave Link  801 at Wed Oct 28 10:10:46 2015, MaxMem=    33554432 cpu:               0.0 elap:               0.0
 (Enter /home/gauss/gdvi03p/gdv/l804.exe)
 Open-shell transformation, MDV=    33554432 ITran=3 ISComp=1.
 Unit  1 TFree=        137648 TCopy=        169261.
 Semi-Direct transformation.
 ModeAB=           2 MOrb=            22 LenV=      33338325
 LASXX=       525646 LTotXX=      525646 LenRXX=      525646
 LTotAB=      682484 MaxLAS=     1166352 LenRXY=     1166352
 NonZer=     1227358 LenScr=     2453504 LnRSAI=           0
 LnScr1=           0 LExtra=           0 Total=      4145502
 MaxDsk=          -1 SrtSym=           F ITran=            3
 DoSDTr:  NPSUse=  1
 JobTyp=1 Pass  1:  I=   1 to  22.
 (rs|ai) integrals will be sorted in core.
 Complete sort for first half transformation.
 First half transformation complete.
 Begin second half transformation for I=  10.
 Begin second half transformation for I=  20.
 Begin second half transformation for I=  10.
 Begin second half transformation for I=  20.
 Complete sort for second half transformation.
 Second half transformation complete.
 ModeAB=           2 MOrb=            19 LenV=      33338325
 LASXX=       453340 LTotXX=      453340 LenRXX=     1007304
 LTotAB=       61750 MaxLAS=     1007304 LenRXY=       61750
 NonZer=     1059991 LenScr=     2357760 LnRSAI=           0
 LnScr1=           0 LExtra=           0 Total=      3426814
 MaxDsk=          -1 SrtSym=           F ITran=            3
 DoSDTr:  NPSUse=  1
 JobTyp=2 Pass  1:  I=   1 to  19.
 (rs|ai) integrals will be sorted in core.
 Complete sort for first half transformation.
 First half transformation complete.
 Begin second half transformation for I=  10.
 Begin second half transformation for I=  10.
 Complete sort for second half transformation.
 Second half transformation complete.
 Spin components of T(2) and E(2):
     alpha-alpha T2 =       0.1253721915D+00 E2=     -0.1380996175D+00
     alpha-beta  T2 =       0.7496411473D-01 E2=     -0.2285730667D+00
     beta-beta   T2 =       0.1290370921D-01 E2=     -0.5584816931D-01
 ANorm=    0.1101471750D+01
 E2 =    -0.4225208536D+00 EUMP2 =    -0.12996805445207D+04
 (S**2,0)=  0.61330D+01           (S**2,1)=  0.59515D+01
 E(PUHF)=      -0.12993116071D+04        E(PMP2)=      -0.12997332241D+04
 Leave Link  804 at Wed Oct 28 10:10:47 2015, MaxMem=    33554432 cpu:               1.3 elap:               1.4
 (Enter /home/gauss/gdvi03p/gdv/l914.exe)
 UHF ground state
 MDV=    33554432 DFT=F DoStab=F Mixed=F DoRPA=T DoScal=F NonHer=T
 Making orbital integer symmetry assigments:
 FoFJK:  IHMeth= 1 ICntrl=       0 DoSepK=F KAlg= 0 I1Cent=           0 FoldK=F
 IRaf=         0 NMat=       2 IRICut=       1 DoRegI=T DoRafI=F ISym2E= 0 IDoP0=0 IntGTp=1.
 FoFCou: FMM=F IPFlag=           0 FMFlag=      100000 FMFlg1=           0
         NFxFlg=           0 DoJE=F BraDBF=F KetDBF=F FulRan=T
         wScrn=  0.000000 ICntrl=         0 IOpCl=  1 I1Cent=           0 NGrid=           0
         NMat0=    2 NMatS0=      2 NMatT0=    0 NMatD0=    2 NMtDS0=    0 NMtDT0=    0
 Symmetry not used in FoFCou.
    48 initial guesses have been made.
 Convergence on wavefunction:    0.001000000000000
 Davidson Disk Diagonalization:  ConvIn= 1.00D-03 SkipCon=T Conv= 1.00D-03.
 Max sub-space:   200 roots to seek:    48 dimension of matrix:         1082
 Iteration     1 Dimension    48 NMult     0 NNew     48
 New state      1 was old state      4
 New state      3 was old state      6
 New state      4 was old state      5
 New state      5 was old state     13
 New state      6 was old state     14
 New state      7 was old state      1
 New state      8 was old state      3
 New state      9 was old state      8
 New state     10 was old state      7
 New state     11 was old state      9
 New state     12 was old state     11
 Excitation Energies [eV] at current iteration:
 Root      1 :    -3.342318723091843
 Root      2 :    -3.342314044117572
 Root      3 :     1.923838926171228
 Root      4 :     1.923838926171356
 Root      5 :     2.463667406801332
 Root      6 :     2.463667406801399
 Root      7 :     3.358227916686373
 Root      8 :     3.571440981708470
 Root      9 :     3.673100082750843
 Root     10 :     3.673100082750932
 Root     11 :     3.776927171497937
 Root     12 :     4.010590119922492
 Root     13 :     4.010590119922533
 Root     14 :     5.572381550026953
 Root     15 :     5.768816104090694
 Root     16 :     5.768816104090750
 Root     17 :     7.851514274136302
 Root     18 :     7.851514274136397
 Root     19 :     8.363993629270976
 Root     20 :     9.645871116386600
 Root     21 :     9.653926650921399
 Root     22 :     9.653926650921408
 Root     23 :     9.698251831179096
 Root     24 :    10.603899428371350
 Root     25 :    10.603899428371380
 Root     26 :    10.684329149035750
 Root     27 :    10.746617207420650
 Root     28 :    11.899550655035620
 Root     29 :    13.838596832089840
 Root     30 :    14.909195664171450
 Root     31 :    15.400185956046080
 Root     32 :    15.400185956046310
 Root     33 :    15.437078635087650
 Root     34 :    15.437078635087970
 Root     35 :    16.088357698240230
 Root     36 :    16.088357698240450
 Root     37 :    16.397277939347210
 Root     38 :    16.397349599032140
 Root     39 :    16.861620121856050
 Root     40 :    16.861620121856290
 Root     41 :    17.186571796663260
 Root     42 :    17.186571796664040
 Root     43 :    17.852462489977160
 Root     44 :    17.993600449836310
 Root     45 :    18.091793544810650
 Root     46 :    18.091793544810650
 Root     47 :    18.098804373459810
 Root     48 :    18.098804373459820
 Iteration     2 Dimension    72 NMult    48 NNew     24
 DSYEVD-2 returned Info=         145 IAlg= 4 N=    72 NDim=    72 NE2=      462375 trying  DSYEV.
 New state      1 was old state      2
 Root      1 not converged, maximum delta is    0.035168477126970
 New state      2 was old state      1
 Root      2 not converged, maximum delta is    0.035210334071194
 Root      3 not converged, maximum delta is    0.724853376371492
 Root      4 not converged, maximum delta is    0.724853376370993
 Root      5 not converged, maximum delta is    0.797777762709308
 Root      6 not converged, maximum delta is    0.797777762709586
 New state      7 was old state     12
 Root      7 not converged, maximum delta is    0.286673163318546
 Root      8 not converged, maximum delta is    0.108353583295321
 New state      9 was old state      7
 Root      9 not converged, maximum delta is    0.038763167275044
 New state     10 was old state      9
 Root     10 not converged, maximum delta is    0.089706039568360
 New state     11 was old state     10
 Root     11 not converged, maximum delta is    0.089706039568181
 New state     12 was old state     11
 Root     12 not converged, maximum delta is    0.005787297980995
 Excitation Energies [eV] at current iteration:
 Root      1 :    -3.346643527233276   Change is   -0.004329483115703
 Root      2 :    -3.346641883585045   Change is   -0.004323160493201
 Root      3 :    -0.734694685243541   Change is   -2.658533611414768
 Root      4 :    -0.734694685243143   Change is   -2.658533611414499
 Root      5 :     0.924355447626067   Change is   -1.539311959175265
 Root      6 :     0.924355447626544   Change is   -1.539311959174855
 Root      7 :     2.204821599803982   Change is   -1.805768520118510
 Root      8 :     2.391595291942421   Change is   -1.179845689766049
 Root      9 :     3.319415762653756   Change is   -0.038812154032617
 Root     10 :     3.642234582723795   Change is   -0.030865500027048
 Root     11 :     3.642234582723847   Change is   -0.030865500027085
 Root     12 :     3.759490566195187   Change is   -0.017436605302750
 Iteration     3 Dimension    96 NMult    72 NNew     24
 DSYEVD-2 returned Info=        4849 IAlg= 4 N=    96 NDim=    96 NE2=      346781 trying  DSYEV.
 Root      1 not converged, maximum delta is    0.004038936034901
 Root      2 not converged, maximum delta is    0.004057514326357
 New state      3 was old state      4
 Root      3 not converged, maximum delta is    0.503757017128244
 New state      4 was old state      3
 Root      4 not converged, maximum delta is    0.503757017128220
 New state      5 was old state      6
 Root      5 not converged, maximum delta is    0.612774366651061
 New state      6 was old state      5
 Root      6 not converged, maximum delta is    0.612774366650921
 Root      7 not converged, maximum delta is    0.111821109571387
 Root      8 not converged, maximum delta is    0.035117101642261
 Root      9 not converged, maximum delta is    0.004233062038991
 Root     10 not converged, maximum delta is    0.211573080244054
 Root     11 not converged, maximum delta is    0.211573080244061
 Root     12 has converged.
 Excitation Energies [eV] at current iteration:
 Root      1 :    -3.346671701784657   Change is   -0.000028174551382
 Root      2 :    -3.346671522920722   Change is   -0.000029639335678
 Root      3 :    -0.796058527924337   Change is   -0.061363842681194
 Root      4 :    -0.796058527924081   Change is   -0.061363842680540
 Root      5 :     0.978903479086162   Change is    0.054548031459618
 Root      6 :     0.978903479086316   Change is    0.054548031460249
 Root      7 :     2.001521927203995   Change is   -0.203299672599987
 Root      8 :     2.299461768955358   Change is   -0.092133522987063
 Root      9 :     3.335652377552005   Change is    0.016236614898249
 Root     10 :     3.641210988390947   Change is   -0.001023594332848
 Root     11 :     3.641210988390963   Change is   -0.001023594332884
 Root     12 :     3.759476524140742   Change is   -0.000014042054445
 Iteration     4 Dimension   118 NMult    96 NNew     22
 Root      1 has converged.
 Root      2 has converged.
 New state      3 was old state      4
 Root      3 not converged, maximum delta is    0.447887833965495
 New state      4 was old state      3
 Root      4 not converged, maximum delta is    0.447887833965199
 Root      5 not converged, maximum delta is    0.228490769028130
 Root      6 not converged, maximum delta is    0.228490769028281
 Root      7 not converged, maximum delta is    0.031373882522963
 Root      8 not converged, maximum delta is    0.006027778712908
 Root      9 not converged, maximum delta is    0.001759822668443
 Root     10 not converged, maximum delta is    0.225463836973262
 Root     11 not converged, maximum delta is    0.225463836973309
 Root     12 has converged.
 Excitation Energies [eV] at current iteration:
 Root      1 :    -3.345185012558644   Change is    0.001486689226013
 Root      2 :    -3.345169417091795   Change is    0.001502105828927
 Root      3 :    -0.796820151118377   Change is   -0.000761623194297
 Root      4 :    -0.796820151117758   Change is   -0.000761623193421
 Root      5 :     0.978737031686558   Change is   -0.000166447399603
 Root      6 :     0.978737031686811   Change is   -0.000166447399506
 Root      7 :     1.983101309981379   Change is   -0.018420617222617
 Root      8 :     2.295156259562757   Change is   -0.004305509392601
 Root      9 :     3.348859298513971   Change is    0.013206920961966
 Root     10 :     3.641164715346163   Change is   -0.000046273044783
 Root     11 :     3.641164715346322   Change is   -0.000046273044641
 Root     12 :     3.759476524140661   Change is   -0.000000000000082
 Iteration     5 Dimension   136 NMult   118 NNew     18
 Root      1 has converged.
 Root      2 has converged.
 New state      3 was old state      4
 Root      3 not converged, maximum delta is    0.248145255304335
 New state      4 was old state      3
 Root      4 not converged, maximum delta is    0.248145255304060
 New state      5 was old state      6
 Root      5 not converged, maximum delta is    0.278363518998811
 New state      6 was old state      5
 Root      6 not converged, maximum delta is    0.278363518998938
 Root      7 not converged, maximum delta is    0.002067622675052
 Root      8 not converged, maximum delta is    0.002292439595217
 Root      9 has converged.
 Root     10 has converged.
 Root     11 has converged.
 Root     12 has converged.
 Excitation Energies [eV] at current iteration:
 Root      1 :    -3.345185012558963   Change is   -0.000000000000319
 Root      2 :    -3.345168361979506   Change is    0.000001055112290
 Root      3 :    -0.796766810188482   Change is    0.000053340929276
 Root      4 :    -0.796766810188482   Change is    0.000053340929895
 Root      5 :     0.978753099896415   Change is    0.000016068209605
 Root      6 :     0.978753099896835   Change is    0.000016068210277
 Root      7 :     1.982762871572022   Change is   -0.000338438409356
 Root      8 :     2.294818063734715   Change is   -0.000338195828042
 Root      9 :     3.352482063517540   Change is    0.003622765003569
 Root     10 :     3.641162066365117   Change is   -0.000002648981047
 Root     11 :     3.641162066365229   Change is   -0.000002648981093
 Root     12 :     3.759476524140704   Change is    0.000000000000044
 Iteration     6 Dimension   148 NMult   136 NNew     12
 Root      1 has converged.
 Root      2 has converged.
 New state      3 was old state      4
 Root      3 not converged, maximum delta is    0.215977666718334
 New state      4 was old state      3
 Root      4 not converged, maximum delta is    0.215977666718605
 Root      5 not converged, maximum delta is    0.654493906919874
 Root      6 not converged, maximum delta is    0.654493906920084
 Root      7 has converged.
 Root      8 has converged.
 Root      9 has converged.
 New state     10 was old state     11
 Root     10 not converged, maximum delta is    0.022867409396684
 New state     11 was old state     10
 Root     11 not converged, maximum delta is    0.022867409396671
 Root     12 has converged.
 Excitation Energies [eV] at current iteration:
 Root      1 :    -3.345185012558804   Change is    0.000000000000160
 Root      2 :    -3.345167771854081   Change is    0.000000590125425
 Root      3 :    -0.796631034585090   Change is    0.000135775603392
 Root      4 :    -0.796631034584626   Change is    0.000135775603856
 Root      5 :     0.978743987047813   Change is   -0.000009112848602
 Root      6 :     0.978743987048065   Change is   -0.000009112848770
 Root      7 :     1.982756473671498   Change is   -0.000006397900525
 Root      8 :     2.294798645241350   Change is   -0.000019418493366
 Root      9 :     3.352482063517442   Change is   -0.000000000000098
 Root     10 :     3.641162066365026   Change is   -0.000000000000203
 Root     11 :     3.641162066365049   Change is   -0.000000000000068
 Root     12 :     3.759476524140639   Change is   -0.000000000000066
 Iteration     7 Dimension   160 NMult   148 NNew     12
 Root      1 has converged.
 Root      2 has converged.
 New state      3 was old state      4
 Root      3 not converged, maximum delta is    0.182782128154751
 New state      4 was old state      3
 Root      4 not converged, maximum delta is    0.182782128154864
 New state      5 was old state      6
 Root      5 not converged, maximum delta is    0.683298356564116
 New state      6 was old state      5
 Root      6 not converged, maximum delta is    0.683298356563040
 Root      7 has converged.
 Root      8 has converged.
 Root      9 has converged.
 New state     10 was old state     11
 Root     10 not converged, maximum delta is    0.001407175867206
 New state     11 was old state     10
 Root     11 not converged, maximum delta is    0.001407175867141
 Root     12 has converged.
 Excitation Energies [eV] at current iteration:
 Root      1 :    -3.345185012558767   Change is    0.000000000000037
 Root      2 :    -3.345167771853860   Change is    0.000000000000221
 Root      3 :    -0.796520711526086   Change is    0.000110323058540
 Root      4 :    -0.796520711523093   Change is    0.000110323061998
 Root      5 :     0.978785814542174   Change is    0.000041827494109
 Root      6 :     0.978785814543098   Change is    0.000041827495285
 Root      7 :     1.982756473671415   Change is   -0.000000000000083
 Root      8 :     2.294798645240167   Change is   -0.000000000001182
 Root      9 :     3.352482063517320   Change is   -0.000000000000122
 Root     10 :     3.641162008847703   Change is   -0.000000057517346
 Root     11 :     3.641162008847770   Change is   -0.000000057517256
 Root     12 :     3.759476524140661   Change is    0.000000000000022
 Iteration     8 Dimension   170 NMult   160 NNew     10
 Root      1 has converged.
 Root      2 has converged.
 Root      3 not converged, maximum delta is    0.423461142802855
 Root      4 not converged, maximum delta is    0.423461142799773
 Root      5 not converged, maximum delta is    0.438372449616697
 Root      6 not converged, maximum delta is    0.438372449603406
 Root      7 has converged.
 Root      8 has converged.
 Root      9 has converged.
 New state     10 was old state     11
 Root     10 has converged.
 New state     11 was old state     10
 Root     11 has converged.
 Root     12 has converged.
 Excitation Energies [eV] at current iteration:
 Root      1 :    -3.345185012558669   Change is    0.000000000000098
 Root      2 :    -3.345167771854020   Change is   -0.000000000000160
 Root      3 :    -0.796490834625579   Change is    0.000029876900507
 Root      4 :    -0.796490834589248   Change is    0.000029876933844
 Root      5 :     0.978803710325370   Change is    0.000017895783196
 Root      6 :     0.978803710342756   Change is    0.000017895799658
 Root      7 :     1.982756473671332   Change is   -0.000000000000083
 Root      8 :     2.294798645240490   Change is    0.000000000000322
 Root      9 :     3.352482063517540   Change is    0.000000000000221
 Root     10 :     3.641162008382453   Change is   -0.000000000465317
 Root     11 :     3.641162008382679   Change is   -0.000000000465024
 Root     12 :     3.759476524140770   Change is    0.000000000000109
 Iteration     9 Dimension   176 NMult   170 NNew      6
 Root      1 has converged.
 Root      2 has converged.
 New state      3 was old state      4
 Root      3 not converged, maximum delta is    0.489414843497451
 New state      4 was old state      3
 Root      4 not converged, maximum delta is    0.489414843486939
 New state      5 was old state      6
 Root      5 not converged, maximum delta is    0.004741354057734
 New state      6 was old state      5
 Root      6 not converged, maximum delta is    0.004741354028674
 Root      7 has converged.
 Root      8 has converged.
 Root      9 has converged.
 Root     10 not converged, maximum delta is    0.259737227505318
 Root     11 not converged, maximum delta is    0.259737227505334
 Root     12 has converged.
 Excitation Energies [eV] at current iteration:
 Root      1 :    -3.345185012558718   Change is   -0.000000000000049
 Root      2 :    -3.345167771853921   Change is    0.000000000000099
 Root      3 :    -0.796468838411281   Change is    0.000021996177967
 Root      4 :    -0.796468837847315   Change is    0.000021996778264
 Root      5 :     0.978817538155630   Change is    0.000013827812874
 Root      6 :     0.978817538389364   Change is    0.000013828063994
 Root      7 :     1.982756473671456   Change is    0.000000000000124
 Root      8 :     2.294798645240526   Change is    0.000000000000036
 Root      9 :     3.352482063517393   Change is   -0.000000000000147
 Root     10 :     3.641162008382565   Change is    0.000000000000113
 Root     11 :     3.641162008382565   Change is   -0.000000000000113
 Root     12 :     3.759476524140770   Change is    0.000000000000000
 Iteration    10 Dimension   184 NMult   176 NNew      8
 Root      1 has converged.
 Root      2 has converged.
 Root      3 not converged, maximum delta is    0.086571042787727
 Root      4 not converged, maximum delta is    0.086571040919695
 Root      5 not converged, maximum delta is    0.661550778209202
 Root      6 not converged, maximum delta is    0.661550778575667
 Root      7 has converged.
 Root      8 has converged.
 Root      9 has converged.
 Root     10 not converged, maximum delta is    0.026622332738962
 Root     11 not converged, maximum delta is    0.026622332738973
 Root     12 has converged.
 Excitation Energies [eV] at current iteration:
 Root      1 :    -3.345185012558705   Change is    0.000000000000012
 Root      2 :    -3.345167771854007   Change is   -0.000000000000086
 Root      3 :    -0.796464700917333   Change is    0.000004137493949
 Root      4 :    -0.796464691650127   Change is    0.000004146197187
 Root      5 :     0.978823334291702   Change is    0.000005796136073
 Root      6 :     0.978823339624565   Change is    0.000005801235201
 Root      7 :     1.982756473671539   Change is    0.000000000000083
 Root      8 :     2.294798645240454   Change is   -0.000000000000072
 Root      9 :     3.352482063517491   Change is    0.000000000000098
 Root     10 :     3.641162008229470   Change is   -0.000000000153096
 Root     11 :     3.641162008229491   Change is   -0.000000000153074
 Root     12 :     3.759476524140748   Change is   -0.000000000000022
 Iteration    11 Dimension   190 NMult   184 NNew      6
 DSYEVD-2 returned Info=         381 IAlg= 4 N=   190 NDim=   190 NE2=      175215 trying  DSYEV.
 Root      1 has converged.
 Root      2 has converged.
 New state      3 was old state      4
 Root      3 not converged, maximum delta is    0.251949993703654
 New state      4 was old state      3
 Root      4 not converged, maximum delta is    0.251950004823123
 Root      5 not converged, maximum delta is    0.232836244701505
 Root      6 not converged, maximum delta is    0.232836251653839
 Root      7 has converged.
 Root      8 has converged.
 Root      9 has converged.
 New state     10 was old state     11
 Root     10 not converged, maximum delta is    0.013870060426052
 New state     11 was old state     10
 Root     11 not converged, maximum delta is    0.013870060426045
 Root     12 has converged.
 Excitation Energies [eV] at current iteration:
 Root      1 :    -3.345185012558730   Change is   -0.000000000000025
 Root      2 :    -3.345167771853959   Change is    0.000000000000049
 Root      3 :    -0.796464396535231   Change is    0.000000295114896
 Root      4 :    -0.796464355232699   Change is    0.000000345684633
 Root      5 :     0.978826298426903   Change is    0.000002964135200
 Root      6 :     0.978826350350790   Change is    0.000003010726225
 Root      7 :     1.982756473671415   Change is   -0.000000000000124
 Root      8 :     2.294798645240454   Change is    0.000000000000000
 Root      9 :     3.352482063517565   Change is    0.000000000000074
 Root     10 :     3.641162008229356   Change is   -0.000000000000135
 Root     11 :     3.641162008229424   Change is   -0.000000000000045
 Root     12 :     3.759476524140727   Change is   -0.000000000000021
 Iteration    12 Dimension   195 NMult   190 NNew      5
 Root      1 has converged.
 Root      2 has converged.
 New state      3 was old state      4
 Root      3 not converged, maximum delta is    0.547144384946634
 New state      4 was old state      3
 Root      4 not converged, maximum delta is    0.547144548458570
 Root      5 not converged, maximum delta is    0.239071281706364
 Root      6 not converged, maximum delta is    0.239071629140005
 Root      7 has converged.
 Root      8 has converged.
 No map to state      9
 New state     10 was old state      9
 Root     10 has converged.
 New state     11 was old state     10
 Root     11 has converged.
 New state     12 was old state     11
 Root     12 has converged.
 Excitation Energies [eV] at current iteration:
 Root      1 :    -3.345185012558754   Change is   -0.000000000000025
 Root      2 :    -3.345167771853909   Change is    0.000000000000049
 Root      3 :    -0.796463827228932   Change is    0.000000528003768
 Root      4 :    -0.796463308279462   Change is    0.000001088255769
 Root      5 :     0.978827001417831   Change is    0.000000702990929
 Root      6 :     0.978827167591006   Change is    0.000000817240216
 Root      7 :     1.982756473671539   Change is    0.000000000000124
 Root      8 :     2.294798645240418   Change is   -0.000000000000036
 Root      9 :     2.541085121158892
 Root     10 :     3.352482063517467   Change is   -0.000000000000098
 Root     11 :     3.641162008229311   Change is   -0.000000000000045
 Root     12 :     3.641162008229605   Change is    0.000000000000181
 Davidson failed to converge within maximum sub-space dimensions.
  Restart with updated initial guess:
 Iteration     1 Dimension    33 NMult   195 NNew     33
 New state      3 was old state      4
 New state      4 was old state      3
 New state      5 was old state      6
 New state      6 was old state      5
 New state      8 was old state      9
 New state      9 was old state      8
 New state     11 was old state     12
 New state     12 was old state     11
 Excitation Energies [eV] at current iteration:
 Root      1 :    -3.345185012558754
 Root      2 :    -3.345167771853934
 Root      3 :    -0.796373936611064
 Root      4 :    -0.796371258422766
 Root      5 :     0.978703953728437
 Root      6 :     0.978704860043865
 Root      7 :     1.982756473671498
 Root      8 :     2.026299015435135
 Root      9 :     2.294798645240239
 Root     10 :     3.351948696636659
 Root     11 :     3.641162008229356
 Root     12 :     3.641162008229470
 Iteration     2 Dimension    51 NMult   228 NNew     18
 Root      1 has converged.
 Root      2 has converged.
 New state      3 was old state      4
 Root      3 not converged, maximum delta is    0.509720838895129
 New state      4 was old state      3
 Root      4 not converged, maximum delta is    0.509716509723021
 Root      5 not converged, maximum delta is    0.457510438688969
 Root      6 not converged, maximum delta is    0.457509443356836
 Root      7 has converged.
 Root      8 not converged, maximum delta is    0.047022690555890
 Root      9 has converged.
 Root     10 has converged.
 New state     11 was old state     12
 Root     11 not converged, maximum delta is    0.102836696367953
 New state     12 was old state     11
 Root     12 not converged, maximum delta is    0.102836696367978
 Excitation Energies [eV] at current iteration:
 Root      1 :    -3.345165127419530   Change is    0.000019885139225
 Root      2 :    -3.345124978401596   Change is    0.000042793452338
 Root      3 :    -0.796375869952921   Change is   -0.000004611530155
 Root      4 :    -0.796372753819720   Change is    0.000001182791344
 Root      5 :     0.978709548611156   Change is    0.000005594882719
 Root      6 :     0.978714796237170   Change is    0.000009936193305
 Root      7 :     1.982756105048776   Change is   -0.000000368622721
 Root      8 :     1.984635057282581   Change is   -0.041663958152554
 Root      9 :     2.294798151454798   Change is   -0.000000493785442
 Root     10 :     3.351980296740933   Change is    0.000031600104274
 Root     11 :     3.641162008229266   Change is   -0.000000000000204
 Root     12 :     3.641162008229491   Change is    0.000000000000135
 Iteration     3 Dimension    59 NMult   246 NNew      8
 Root      1 has converged.
 Root      2 has converged.
 Root      3 not converged, maximum delta is    0.037430277165693
 Root      4 not converged, maximum delta is    0.037426489151085
 Root      5 not converged, maximum delta is    0.151769860408944
 Root      6 not converged, maximum delta is    0.151763967674534
 Root      7 has converged.
 Root      8 not converged, maximum delta is    0.005152685901969
 Root      9 has converged.
 Root     10 has converged.
 Root     11 not converged, maximum delta is    0.103806538820310
 Root     12 not converged, maximum delta is    0.103806538820327
 Excitation Energies [eV] at current iteration:
 Root      1 :    -3.345165127419468   Change is    0.000000000000062
 Root      2 :    -3.345124978401436   Change is    0.000000000000160
 Root      3 :    -0.796377148498662   Change is   -0.000001278545741
 Root      4 :    -0.796369222658361   Change is    0.000003531161359
 Root      5 :     0.978712749240538   Change is    0.000003200629382
 Root      6 :     0.978720440533586   Change is    0.000005644296416
 Root      7 :     1.982756105048486   Change is   -0.000000000000290
 Root      8 :     1.982791932544413   Change is   -0.001843124738168
 Root      9 :     2.294798151454690   Change is   -0.000000000000107
 Root     10 :     3.351980296740614   Change is   -0.000000000000319
 Root     11 :     3.641162008229334   Change is    0.000000000000068
 Root     12 :     3.641162008229470   Change is   -0.000000000000022
 Iteration     4 Dimension    67 NMult   254 NNew      8
 Root      1 has converged.
 Root      2 has converged.
 Root      3 not converged, maximum delta is    0.029035160860942
 Root      4 not converged, maximum delta is    0.029042432726252
 Root      5 not converged, maximum delta is    0.108565091562217
 Root      6 not converged, maximum delta is    0.108562884330949
 Root      7 has converged.
 Root      8 has converged.
 Root      9 has converged.
 Root     10 has converged.
 New state     11 was old state     12
 Root     11 has converged.
 New state     12 was old state     11
 Root     12 has converged.
 Excitation Energies [eV] at current iteration:
 Root      1 :    -3.345165127419505   Change is   -0.000000000000037
 Root      2 :    -3.345124978401584   Change is   -0.000000000000148
 Root      3 :    -0.796379578487134   Change is   -0.000002429988472
 Root      4 :    -0.796372902558206   Change is   -0.000003679899845
 Root      5 :     0.978719456829792   Change is    0.000006707589254
 Root      6 :     0.978734398411331   Change is    0.000013957877745
 Root      7 :     1.982756105048610   Change is    0.000000000000125
 Root      8 :     1.982756763550587   Change is   -0.000035168993825
 Root      9 :     2.294798151454726   Change is    0.000000000000036
 Root     10 :     3.351980296740786   Change is    0.000000000000172
 Root     11 :     3.641162008229447   Change is   -0.000000000000023
 Root     12 :     3.641162008229470   Change is    0.000000000000136
 Iteration     5 Dimension    73 NMult   262 NNew      6
 Root      1 has converged.
 Root      2 has converged.
 New state      3 was old state      4
 Root      3 not converged, maximum delta is    0.339904744478271
 New state      4 was old state      3
 Root      4 not converged, maximum delta is    0.339913950854740
 Root      5 not converged, maximum delta is    0.239943961628947
 Root      6 not converged, maximum delta is    0.239940937207011
 Root      7 has converged.
 Root      8 has converged.
 Root      9 has converged.
 Root     10 has converged.
 New state     11 was old state     12
 Root     11 has converged.
 New state     12 was old state     11
 Root     12 has converged.
 Excitation Energies [eV] at current iteration:
 Root      1 :    -3.345165127419456   Change is    0.000000000000049
 Root      2 :    -3.345124978401560   Change is    0.000000000000025
 Root      3 :    -0.796385910122136   Change is   -0.000013007563930
 Root      4 :    -0.796378814869608   Change is    0.000000763617526
 Root      5 :     0.978726038700145   Change is    0.000006581870353
 Root      6 :     0.978750077761032   Change is    0.000015679349701
 Root      7 :     1.982756105048569   Change is   -0.000000000000042
 Root      8 :     1.982756394772979   Change is   -0.000000368777608
 Root      9 :     2.294798151454654   Change is   -0.000000000000072
 Root     10 :     3.351980296740737   Change is   -0.000000000000049
 Root     11 :     3.641162008229334   Change is   -0.000000000000136
 Root     12 :     3.641162008229559   Change is    0.000000000000113
 Iteration     6 Dimension    79 NMult   268 NNew      6
 Root      1 has converged.
 Root      2 has converged.
 Root      3 not converged, maximum delta is    0.068744094423132
 Root      4 not converged, maximum delta is    0.068740901582287
 Root      5 not converged, maximum delta is    0.001704306809782
 Root      6 not converged, maximum delta is    0.001701375447127
 Root      7 has converged.
 Root      8 has converged.
 Root      9 has converged.
 Root     10 has converged.
 Root     11 not converged, maximum delta is    0.001718130606004
 Root     12 not converged, maximum delta is    0.001718130606002
 Excitation Energies [eV] at current iteration:
 Root      1 :    -3.345165127419505   Change is   -0.000000000000049
 Root      2 :    -3.345124978401572   Change is   -0.000000000000012
 Root      3 :    -0.796389428740511   Change is   -0.000003518618374
 Root      4 :    -0.796380994445485   Change is   -0.000002179575876
 Root      5 :     0.978734339742071   Change is    0.000008301041926
 Root      6 :     0.978757408858737   Change is    0.000007331097705
 Root      7 :     1.982756105048527   Change is   -0.000000000000042
 Root      8 :     1.982756337483179   Change is   -0.000000057289800
 Root      9 :     2.294798151454654   Change is    0.000000000000000
 Root     10 :     3.351980296740663   Change is   -0.000000000000074
 Root     11 :     3.641162008229356   Change is    0.000000000000023
 Root     12 :     3.641162008229470   Change is   -0.000000000000090
 Iteration     7 Dimension    85 NMult   274 NNew      6
 Root      1 has converged.
 Root      2 has converged.
 Root      3 not converged, maximum delta is    0.072491440177217
 Root      4 not converged, maximum delta is    0.072491566690580
 Root      5 not converged, maximum delta is    0.039694565772943
 Root      6 not converged, maximum delta is    0.039694370251087
 Root      7 has converged.
 Root      8 has converged.
 Root      9 has converged.
 Root     10 has converged.
 Root     11 has converged.
 Root     12 has converged.
 Excitation Energies [eV] at current iteration:
 Root      1 :    -3.345165127419530   Change is   -0.000000000000025
 Root      2 :    -3.345124978401535   Change is    0.000000000000037
 Root      3 :    -0.796391614734927   Change is   -0.000002185994416
 Root      4 :    -0.796382961975677   Change is   -0.000001967530192
 Root      5 :     0.978737806125581   Change is    0.000003466383510
 Root      6 :     0.978761270783152   Change is    0.000003861924415
 Root      7 :     1.982756105048486   Change is   -0.000000000000042
 Root      8 :     1.982756317344589   Change is   -0.000000020138590
 Root      9 :     2.294798151454726   Change is    0.000000000000072
 Root     10 :     3.351980296740761   Change is    0.000000000000098
 Root     11 :     3.641162008229402   Change is    0.000000000000045
 Root     12 :     3.641162008229470   Change is    0.000000000000000
 Iteration     8 Dimension    88 NMult   280 NNew      3
 Root      1 has converged.
 Root      2 has converged.
 Root      3 not converged, maximum delta is    0.103473285136030
 Root      4 not converged, maximum delta is    0.103472403715655
 Root      5 not converged, maximum delta is    0.002234042010075
 Root      6 not converged, maximum delta is    0.002233899963733
 Root      7 has converged.
 Root      8 has converged.
 Root      9 has converged.
 Root     10 has converged.
 Root     11 has converged.
 Root     12 has converged.
 Excitation Energies [eV] at current iteration:
 Root      1 :    -3.345165127419530   Change is    0.000000000000000
 Root      2 :    -3.345124978401498   Change is    0.000000000000037
 Root      3 :    -0.796390364070040   Change is    0.000001250664887
 Root      4 :    -0.796382742818613   Change is    0.000000219157063
 Root      5 :     0.978738773587624   Change is    0.000000967462043
 Root      6 :     0.978761761699242   Change is    0.000000490916090
 Root      7 :     1.982756105048735   Change is    0.000000000000249
 Root      8 :     1.982756302773123   Change is   -0.000000014571466
 Root      9 :     2.294798151454619   Change is   -0.000000000000108
 Root     10 :     3.351980296740786   Change is    0.000000000000025
 Root     11 :     3.641162008229356   Change is   -0.000000000000045
 Root     12 :     3.641162008229491   Change is    0.000000000000022
 Iteration     9 Dimension    90 NMult   283 NNew      2
 Root      1 has converged.
 Root      2 has converged.
 Root      3 has converged.
 Root      4 has converged.
 Root      5 not converged, maximum delta is    0.015658417580759
 Root      6 not converged, maximum delta is    0.015658939165470
 Root      7 has converged.
 Root      8 has converged.
 Root      9 has converged.
 Root     10 has converged.
 Root     11 not converged, maximum delta is    0.001567123585864
 Root     12 not converged, maximum delta is    0.001567123585853
 Excitation Energies [eV] at current iteration:
 Root      1 :    -3.345165127419493   Change is    0.000000000000037
 Root      2 :    -3.345124978401535   Change is   -0.000000000000037
 Root      3 :    -0.796390220566731   Change is    0.000000143503309
 Root      4 :    -0.796379780383013   Change is    0.000002962435600
 Root      5 :     0.978740409415820   Change is    0.000001635828196
 Root      6 :     0.978761885020113   Change is    0.000000123320871
 Root      7 :     1.982756105048444   Change is   -0.000000000000290
 Root      8 :     1.982756301055799   Change is   -0.000000001717324
 Root      9 :     2.294798151454619   Change is    0.000000000000000
 Root     10 :     3.351980296740688   Change is   -0.000000000000098
 Root     11 :     3.641162008229402   Change is    0.000000000000045
 Root     12 :     3.641162008229447   Change is   -0.000000000000045
 Convergence achieved on expansion vectors.
 ***********************************************************************
 Excited states from <AA,BB:AA,BB> singles matrix:
 ***********************************************************************
 
 ExtSpn:  IState=     1 X2= 1.072 Y2= 0.072 X2-Y2-1= 4.44D-16
          S2Grnd=  6.133 Ra= -0.148 Rb=  0.000 T=  0.002 S2Ext= -0.147 S2=  5.986
 ExtSpn:  IState=     2 X2= 1.072 Y2= 0.072 X2-Y2-1= 4.44D-16
          S2Grnd=  6.133 Ra= -0.148 Rb=  0.000 T=  0.002 S2Ext= -0.147 S2=  5.986
 ExtSpn:  IState=     3 X2= 1.814 Y2= 0.814 X2-Y2-1=-2.00D-15
          S2Grnd=  6.133 Ra= -0.181 Rb=  0.000 T= -0.011 S2Ext= -0.192 S2=  5.941
 ExtSpn:  IState=     4 X2= 1.814 Y2= 0.814 X2-Y2-1=-1.11D-15
          S2Grnd=  6.133 Ra= -0.181 Rb=  0.000 T= -0.011 S2Ext= -0.192 S2=  5.941
 ExtSpn:  IState=     5 X2= 2.062 Y2= 1.062 X2-Y2-1= 6.66D-16
          S2Grnd=  6.133 Ra=  1.036 Rb=  0.000 T=  0.040 S2Ext=  1.076 S2=  7.209
 ExtSpn:  IState=     6 X2= 2.062 Y2= 1.062 X2-Y2-1= 1.55D-15
          S2Grnd=  6.133 Ra=  1.036 Rb=  0.000 T=  0.040 S2Ext=  1.076 S2=  7.209
 ExtSpn:  IState=     7 X2= 1.008 Y2= 0.008 X2-Y2-1=-2.22D-16
          S2Grnd=  6.133 Ra=  0.024 Rb=  0.000 T=  0.010 S2Ext=  0.035 S2=  6.168
 ExtSpn:  IState=     8 X2= 1.008 Y2= 0.008 X2-Y2-1=-3.33D-16
          S2Grnd=  6.133 Ra=  0.024 Rb=  0.000 T=  0.010 S2Ext=  0.035 S2=  6.168
 ExtSpn:  IState=     9 X2= 1.047 Y2= 0.047 X2-Y2-1= 4.44D-16
          S2Grnd=  6.133 Ra= -0.107 Rb=  0.002 T= -0.042 S2Ext= -0.147 S2=  5.986
 ExtSpn:  IState=    10 X2= 1.067 Y2= 0.067 X2-Y2-1= 6.66D-16
          S2Grnd=  6.133 Ra= -0.145 Rb=  0.000 T=  0.000 S2Ext= -0.145 S2=  5.988
 ExtSpn:  IState=    11 X2= 1.027 Y2= 0.027 X2-Y2-1=-5.55D-16
          S2Grnd=  6.133 Ra=  0.485 Rb=  0.000 T=  0.009 S2Ext=  0.494 S2=  6.627
 ExtSpn:  IState=    12 X2= 1.027 Y2= 0.027 X2-Y2-1=-1.11D-16
          S2Grnd=  6.133 Ra=  0.485 Rb=  0.000 T=  0.009 S2Ext=  0.494 S2=  6.627
 1PDM for each excited state written to RWF  633
 Ground to excited state transition densities written to RWF  633
 Ground to excited state transition electric dipole moments (Au):
       state          X           Y           Z        Dip. S.      Osc.
         1         0.0000      0.0000      0.0000      0.0000      0.0000
         2         0.0000      0.0000      0.0001      0.0000      0.0000
         3         0.8593     -1.3396      0.0000      2.5329     -0.0494
         4        -1.3396     -0.8593      0.0000      2.5330     -0.0494
         5         1.2715      0.2929      0.0000      1.7024      0.0408
         6        -0.2929      1.2714      0.0000      1.7023      0.0408
         7         0.0000      0.0000      0.0000      0.0000      0.0000
         8         0.0000      0.0000      0.0000      0.0000      0.0000
         9         0.0000      0.0000     -2.8154      7.9264      0.4456
        10         0.0000      0.0000      0.0000      0.0000      0.0000
        11         0.0000      0.0000      0.0000      0.0000      0.0000
        12         0.0000      0.0000      0.0000      0.0000      0.0000
 Ground to excited state transition velocity dipole moments (Au):
       state          X           Y           Z        Dip. S.      Osc.
         1         0.0000      0.0000      0.0000      0.0000      0.0000
         2         0.0000      0.0000      0.0002      0.0000      0.0000
         3        -0.0535      0.0836      0.0000      0.0098     -0.2243
         4         0.0835      0.0538      0.0000      0.0099     -0.2247
         5         0.0085      0.0020      0.0000      0.0001      0.0014
         6        -0.0020      0.0085      0.0000      0.0001      0.0014
         7         0.0000      0.0000      0.0000      0.0000      0.0000
         8         0.0000      0.0000      0.0000      0.0000      0.0000
         9         0.0000      0.0000      0.1156      0.0134      0.1057
        10         0.0000      0.0000      0.0000      0.0000      0.0000
        11         0.0000      0.0000      0.0000      0.0000      0.0000
        12         0.0000      0.0000      0.0000      0.0000      0.0000
 Ground to excited state transition magnetic dipole moments (Au):
       state          X           Y           Z
         1         0.0000      0.0000      0.0000
         2         0.0000      0.0000      0.0000
         3         0.0000      0.0002      0.0000
         4         0.0000     -0.0002      0.0000
         5         0.0000      0.0000      0.0000
         6         0.0000     -0.0001      0.0000
         7        -1.4193      0.1793      0.0000
         8         0.1793      1.4193      0.0000
         9         0.0000      0.0000      0.0000
        10         0.0000      0.0000      0.0000
        11         0.0000      0.0000      0.0000
        12         0.0000      0.0000      0.0000
 Ground to excited state transition velocity quadrupole moments (Au):
       state          XX          YY          ZZ          XY          XZ          YZ
         1         0.0000      0.0000      0.0000      0.0000      0.0000      0.0000
         2         0.0000      0.0000      0.0000      0.0000      0.0000      0.0000
         3         0.0000      0.0000      0.0000      0.0000      0.0004      0.0000
         4         0.0000      0.0000      0.0000      0.0000     -0.0001      0.0000
         5         0.0000      0.0000      0.0000      0.0000      0.0001      0.0000
         6         0.0000      0.0000      0.0000      0.0000      0.0000      0.0000
         7         0.0000      0.0000      0.0000      0.0000      0.0290      0.2296
         8         0.0000      0.0000      0.0000      0.0000      0.2296     -0.0290
         9         0.0000      0.0000      0.0000      0.0000      0.0000      0.0000
        10         0.0000      0.0000      0.0000      0.0000      0.0000      0.0000
        11        -0.0463      0.0463      0.0000      0.2826      0.0000      0.0000
        12         0.2826     -0.2826      0.0000      0.0463      0.0000      0.0000
 <0|del|b> * <b|rxdel|0> + <0|del|b> * <b|delr+rdel|0>
 Rotatory Strengths (R) in cgs (10**-40 erg-esu-cm/Gauss)
       state          XX          YY          ZZ    R(velocity)    E-M Angle
         1         0.0000      0.0000      0.0000      0.0000       90.00
         2         0.0000      0.0000      0.0000      0.0000       90.00
         3         0.1812     -0.0138     -0.6027     -0.1451       90.00
         4         0.0433     -0.0003      0.2505      0.0978       90.00
         5        -0.0002     -0.0001      0.0028      0.0008       90.00
         6        -0.0023      0.0001     -0.0077     -0.0033       90.00
         7         0.0000      0.0000      0.0000      0.0000       90.00
         8         0.0179     -0.0029      0.0208      0.0119       90.00
         9         0.0000      0.0000      0.0000      0.0000       90.00
        10         0.0000      0.0000      0.0000      0.0000       90.00
        11         0.0000      0.0000      0.0000      0.0000       90.00
        12         0.0000      0.0000      0.0000      0.0000       90.00
 1/2[<0|r|b>*<b|rxdel|0> + (<0|rxdel|b>*<b|r|0>)*]
 Rotatory Strengths (R) in cgs (10**-40 erg-esu-cm/Gauss)
       state          XX          YY          ZZ     R(length)
         1         0.0000      0.0000      0.0000      0.0000
         2         0.0000      0.0000      0.0000      0.0000
         3        -0.0173      0.2215      0.0000      0.0681
         4        -0.0177     -0.1196      0.0000     -0.0458
         5        -0.0046     -0.0083      0.0000     -0.0043
         6        -0.0016      0.0553      0.0000      0.0179
         7        -0.0001      0.0000      0.0000      0.0000
         8         0.0008     -0.0223      0.0000     -0.0072
         9         0.0000      0.0000      0.0000      0.0000
        10         0.0000      0.0000      0.0000      0.0000
        11         0.0000      0.0000      0.0000      0.0000
        12         0.0000      0.0000      0.0000      0.0000
  1/2[<0|del|b>*<b|r|0> + (<0|r|b>*<b|del|0>)*] (Au)
       state          X           Y           Z        Dip. S.   Osc.(frdel)
         1         0.0000      0.0000      0.0000      0.0000      0.0000
         2         0.0000      0.0000      0.0000      0.0000      0.0000
         3        -0.0460     -0.1119      0.0000      0.1579      0.1053
         4        -0.1118     -0.0462      0.0000      0.1581      0.1054
         5         0.0108      0.0006      0.0000     -0.0114     -0.0076
         6         0.0006      0.0108      0.0000     -0.0114     -0.0076
         7         0.0000      0.0000      0.0000      0.0000      0.0000
         8         0.0000      0.0000      0.0000      0.0000      0.0000
         9         0.0000      0.0000     -0.3256      0.3256      0.2171
        10         0.0000      0.0000      0.0000      0.0000      0.0000
        11         0.0000      0.0000      0.0000      0.0000      0.0000
        12         0.0000      0.0000      0.0000      0.0000      0.0000

 Excitation energies and oscillator strengths:
 
 Excited state symmetry could not be determined.
 Excited State   1:  4.995-?Sym    -3.3452 eV    -370.64 nm  f=-0.0000  <S**2>=5.986
     21A -> 23A        0.65191
     21A -> 24A       -0.33034
     22A -> 23A       -0.33034
     22A -> 24A       -0.65191
     21A <- 23A       -0.16758
     22A <- 24A        0.16758
 This state for optimization and/or second-order correction.
 Total Energy, E(TD-HF/TD-KS) =  -1299.38095622    
 Copying the excited state density for this state as the 1-particle RhoCI density.
 
 Excited state symmetry could not be determined.
 Excited State   2:  4.995-?Sym    -3.3451 eV    -370.64 nm  f=-0.0000  <S**2>=5.986
     21A -> 23A        0.33034
     21A -> 24A        0.65191
     22A -> 23A        0.65191
     22A -> 24A       -0.33034
     21A <- 24A       -0.16759
     22A <- 23A       -0.16759
 
 Excited state symmetry could not be determined.
 Excited State   3:  4.976-?Sym    -0.7964 eV    -1556.83 nm  f=-0.0494  <S**2>=5.941
     16A -> 26A        0.17366
     19A -> 23A        0.90959
     19A -> 24A       -0.77541
     19A -> 34A        0.12242
     20A -> 26A       -0.38539
     20A -> 30A       -0.11947
     21A -> 25A        0.24247
     22A -> 25A       -0.24253
     21A <- 25A        0.54133
     21A <- 29A       -0.31807
     22A <- 25A       -0.54145
     22A <- 29A        0.31817
 
 Excited state symmetry could not be determined.
 Excited State   4:  4.976-?Sym    -0.7964 eV    -1556.85 nm  f=-0.0494  <S**2>=5.941
     16A -> 27A        0.17369
     19A -> 23A        0.77542
     19A -> 24A        0.90961
     19A -> 35A        0.12241
     20A -> 27A       -0.38533
     20A -> 31A       -0.11957
     21A -> 25A        0.24253
     22A -> 25A        0.24245
     21A <- 25A        0.54145
     21A <- 29A       -0.31819
     22A <- 25A        0.54138
     22A <- 29A       -0.31801
 
 Excited state symmetry could not be determined.
 Excited State   5:  5.462-?Sym    0.9787 eV 1266.77 nm  f=0.0408  <S**2>=7.209
     19A -> 23A        0.19814
     19A -> 24A        0.52326
     20A -> 27A       -0.14909
     21A -> 25A       -0.50838
     21A -> 29A        0.22373
     22A -> 25A       -1.07541
     22A -> 29A        0.47340
     16A <- 27A       -0.12123
     19A <- 23A       -0.32718
     19A <- 24A       -0.86404
     19A <- 35A       -0.10802
     20A <- 26A       -0.13897
     20A <- 27A        0.25838
     20A <- 31A        0.10118
     22A <- 25A        0.17047
     22A <- 29A       -0.12492
 
 Excited state symmetry could not be determined.
 Excited State   6:  5.462-?Sym    0.9788 eV 1266.75 nm  f=0.0408  <S**2>=7.209
     19A -> 23A        0.52324
     19A -> 24A       -0.19813
     20A -> 26A       -0.14911
     21A -> 25A       -1.07540
     21A -> 29A        0.47334
     22A -> 25A        0.50837
     22A -> 29A       -0.22375
     16A <- 26A       -0.12123
     19A <- 23A       -0.86400
     19A <- 24A        0.32717
     19A <- 34A       -0.10803
     20A <- 26A        0.25839
     20A <- 27A        0.13896
     20A <- 30A        0.10117
     21A <- 25A        0.17048
     21A <- 29A       -0.12488
 
 Excited state symmetry could not be determined.
 Excited State   7:  5.067-?Sym    1.9828 eV  625.31 nm  f=0.0000  <S**2>=6.168
     16A -> 23A       -0.24569
     19A -> 26A       -0.25690
     19A -> 27A       -0.28984
     19A -> 30A       -0.15677
     20A -> 23A        0.87058
 
 Excited state symmetry could not be determined.
 Excited State   8:  5.067-?Sym    1.9828 eV  625.31 nm  f=0.0000  <S**2>=6.168
     16A -> 24A       -0.24569
     19A -> 26A        0.28984
     19A -> 27A       -0.25690
     19A -> 31A       -0.15678
     20A -> 24A        0.87058
 
 Excited state symmetry could not be determined.
 Excited State   9:  4.994-?Sym    2.2948 eV  540.28 nm  f=0.4456  <S**2>=5.986
     19A -> 25A       -0.18521
     19A -> 29A        0.13922
     21A -> 23A        0.69219
     22A -> 24A        0.69219
     19A <- 25A       -0.10680
 
 Excited state symmetry could not be determined.
 Excited State  10:  4.995-?Sym    3.3520 eV  369.88 nm  f=0.0000  <S**2>=5.988
     21A -> 24A       -0.72737
     22A -> 23A        0.72737
     21A <- 24A       -0.18157
     22A <- 23A        0.18157
 
 Excited state symmetry could not be determined.
 Excited State  11:  5.245-?Sym    3.6412 eV  340.51 nm  f=0.0000  <S**2>=6.627
     21A -> 26A       -0.23362
     21A -> 27A        0.65566
     21A -> 31A        0.12558
     22A -> 26A        0.65566
     22A -> 27A        0.23362
     22A -> 30A        0.12558
 
 Excited state symmetry could not be determined.
 Excited State  12:  5.245-?Sym    3.6412 eV  340.51 nm  f=0.0000  <S**2>=6.627
     21A -> 26A       -0.65566
     21A -> 27A       -0.23362
     21A -> 30A       -0.12558
     22A -> 26A       -0.23362
     22A -> 27A        0.65566
     22A -> 31A        0.12558
 SavETr:  write IOETrn=   770 NScale= 10 NData=  16 NLR=1 NState=   12 LETran=     226.
 Leave Link  914 at Wed Oct 28 10:10:49 2015, MaxMem=    33554432 cpu:               1.6 elap:               1.6
 (Enter /home/gauss/gdvi03p/gdv/l601.exe)
 Copying SCF densities to generalized density rwf, IOpCl= 1 IROHF=0.

 **********************************************************************

            Population analysis using the SCF density.

 **********************************************************************

 Alpha  occ. eigenvalues -- -240.61332 -29.27700 -24.98317 -24.98317 -24.97724
 Alpha  occ. eigenvalues --  -20.62795 -20.62793  -4.09752  -2.80377  -2.80377
 Alpha  occ. eigenvalues --   -2.80239  -1.17108  -1.13913  -0.70844  -0.70844
 Alpha  occ. eigenvalues --   -0.69612  -0.69257  -0.69257  -0.50508  -0.49852
 Alpha  occ. eigenvalues --   -0.26391  -0.26391
 Alpha virt. eigenvalues --   -0.02340  -0.02340   0.02770   0.09554   0.09554
 Alpha virt. eigenvalues --    0.12072   0.24069   0.34564   0.34564   0.70456
 Alpha virt. eigenvalues --    0.93293   1.19783   1.19783   1.24609   1.31252
 Alpha virt. eigenvalues --    1.31252   1.32608   1.49949   1.49949   1.53859
 Alpha virt. eigenvalues --    1.66040   1.66040   2.07871   2.10602  16.84240
  Beta  occ. eigenvalues -- -240.60889 -29.14858 -24.85787 -24.85367 -24.85367
  Beta  occ. eigenvalues --  -20.69254 -20.69250  -3.70015  -2.33506  -2.31998
  Beta  occ. eigenvalues --   -2.31998  -1.39789  -1.38337  -0.65809  -0.65809
  Beta  occ. eigenvalues --   -0.65308  -0.65308  -0.64777  -0.60479
  Beta virt. eigenvalues --    0.02181   0.06896   0.06896   0.12506   0.20076
  Beta virt. eigenvalues --    0.26238   0.26238   0.26947   0.26947   0.40606
  Beta virt. eigenvalues --    0.42803   0.42803   0.73890   1.01705   1.07752
  Beta virt. eigenvalues --    1.07752   1.16880   1.16880   1.19899   1.27685
  Beta virt. eigenvalues --    1.50799   1.76461   1.76461   1.86797   1.86797
  Beta virt. eigenvalues --    2.07017   2.23859  16.93844
          Condensed to atoms (all electrons):
               1          2          3
     1  Mn  23.747441   0.216485   0.216485
     2  O    0.216485   8.194853  -0.001543
     3  O    0.216485  -0.001543   8.194853
          Atomic-Atomic Spin Densities.
               1          2          3
     1  Mn   5.535348   0.153909   0.153909
     2  O    0.153909  -1.575310  -0.000183
     3  O    0.153909  -0.000183  -1.575310
 Mulliken charges and spin densities:
               1          2
     1  Mn   0.819589   5.843167
     2  O   -0.409794  -1.421583
     3  O   -0.409794  -1.421583
 Sum of Mulliken charges =   0.00000   3.00000
 Mulliken charges and spin densities with hydrogens summed into heavy atoms:
               1          2
     1  Mn   0.819589   5.843167
     2  O   -0.409794  -1.421583
     3  O   -0.409794  -1.421583
 Electronic spatial extent (au):  <R**2>=            262.8531
 Charge=              0.0000 electrons
 Dipole moment (field-independent basis, Debye):
    X=              0.0000    Y=              0.0000    Z=              0.0000  Tot=              0.0000
 Quadrupole moment (field-independent basis, Debye-Ang):
   XX=            -26.5955   YY=            -26.5955   ZZ=            -40.0184
   XY=              0.0000   XZ=              0.0000   YZ=              0.0000
 Traceless Quadrupole moment (field-independent basis, Debye-Ang):
   XX=              4.4743   YY=              4.4743   ZZ=             -8.9486
   XY=              0.0000   XZ=              0.0000   YZ=              0.0000
 Octapole moment (field-independent basis, Debye-Ang**2):
  XXX=              0.0000  YYY=              0.0000  ZZZ=              0.0000  XYY=              0.0000
  XXY=              0.0000  XXZ=              0.0000  XZZ=              0.0000  YZZ=              0.0000
  YYZ=              0.0000  XYZ=              0.0000
 Hexadecapole moment (field-independent basis, Debye-Ang**3):
 XXXX=            -49.7517 YYYY=            -49.7517 ZZZZ=           -328.4995 XXXY=              0.0000
 XXXZ=              0.0000 YYYX=              0.0000 YYYZ=              0.0000 ZZZX=              0.0000
 ZZZY=              0.0000 XXYY=            -16.5839 XXZZ=            -52.0647 YYZZ=            -52.0647
 XXYZ=              0.0000 YYXZ=              0.0000 ZZXY=              0.0000
 N-N= 1.242059643306D+02 E-N=-3.336818208001D+03  KE= 1.298866297663D+03
 Leave Link  601 at Wed Oct 28 10:10:49 2015, MaxMem=    33554432 cpu:               0.0 elap:               0.0
 (Enter /home/gauss/gdvi03p/gdv/l9999.exe)
 Unable to Open any file for archive entry.
 1\1\GINC-MEDUSA\SP\UTD-Full\6-31G\Mn1O2(4)\PLESTRAN\28-Oct-2015\0\\#p 
 uhf/6-31G nosymm td(full,nstates=12)\\MnO2 6-31G\\0,4\Mn,0,0.,0.,0.\O,
 0,0.,0.,1.840528\O,0,0.,0.,-1.840528\\Version=ES64L-GDVRevI.03+\HF=-12
 99.2580237\MP2=-1299.6805445\PUHF=-1299.3116071\PMP2-0=-1299.7332241\E
 FC=0.\S2=6.133002\S2-1=5.951544\S2A=7.50318\RMSD=2.531e-09\PG=D*H [O(M
 n1),C*(O1.O1)]\\@
 The archive entry for this job was punched.


 10 WHATSOEVER THY HAND FINDETH TO DO, DO IT WITH THY  
 MIGHT. FOR THERE IS NO WORK, NOR DEVICE, NOR KNOWLEDGE, NOR  
 WISDOM, IN THE GRAVE, WHITHER THOU GOEST.                    
 11 I RETURNED AND SAW UNDER THE SUN, THAT THE RACE IS NOT TO 
 THE SWIFT, NOR THE BATTLE TO THE STRONG, NEITHER YET BREAD TO
 THE WISE, NOR YET RICHES TO MEN OF UNDERSTANDING, NOR YET    
 FAVOR TO MEN OF SKILL. BUT TIME AND CHANCE HAPPEN TO THEM ALL.
 12 FOR MAN ALSO KNOWETH NOT HIS TIME. AS THE FISHES   
 THAT ARE TAKEN IN AN EVIL NET, AND AS THE BIRDS THAT ARE     
 CAUGHT IN THE SNARE. SO ARE THE SONS OF MEN SNARED IN AN EVIL
 TIME, WHEN IT FALLETH SUDDENLY UPON THEM.
                                         ECCLESIASTES 9
 Job cpu time:       0 days  0 hours  0 minutes  4.2 seconds.
 Elapsed time:       0 days  0 hours  0 minutes  4.0 seconds.
 File lengths (MBytes):  RWF=     53 Int=      0 D2E=      0 Chk=      3 Scr=      1
 Normal termination of Gaussian DV at Wed Oct 28 10:10:49 2015.
