 Entering Gaussian System, Link 0=gdv
 Input=MnO2_cc-pVDZ_ROHF.com
 Output=MnO2_cc-pVDZ_ROHF.log
 Initial command:
 /home/gauss/gdvi01p/gdv/l1.exe "/home/GauScr/Gau-32728.inp" -scrdir="/home/GauScr/"
 Entering Link 1 = /home/gauss/gdvi01p/gdv/l1.exe PID=     32729.
  
 Copyright (c) 1988,1990,1992,1993,1995,1998,2003,2009,2014,
            Gaussian, Inc.  All Rights Reserved.
  
 This is the private, development version of
 the Gaussian(R) DV system of programs. It is based on
 the Gaussian(R) 09 system (copyright 2009, Gaussian, Inc.),
 the Gaussian(R) 03 system (copyright 2003, Gaussian, Inc.),
 the Gaussian(R) 98 system (copyright 1998, Gaussian, Inc.),
 the Gaussian(R) 94 system (copyright 1995, Gaussian, Inc.),
 the Gaussian 92(TM) system (copyright 1992, Gaussian, Inc.),
 the Gaussian 90(TM) system (copyright 1990, Gaussian, Inc.),
 the Gaussian 88(TM) system (copyright 1988, Gaussian, Inc.),
 the Gaussian 86(TM) system (copyright 1986, Carnegie Mellon
 University), and the Gaussian 82(TM) system (copyright 1983,
 Carnegie Mellon University). Gaussian is a federally registered
 trademark of Gaussian, Inc.
  
 This software contains proprietary and confidential information,
 including trade secrets, belonging to Gaussian, Inc.
  
 This software is provided under written license and may be
 used, copied, transmitted, or stored only in accord with that
 written license.
  
 The following legend is applicable only to US Government
 contracts under FAR:
  
                    RESTRICTED RIGHTS LEGEND
  
 Use, reproduction and disclosure by the US Government is
 subject to restrictions as set forth in subparagraphs (a)
 and (c) of the Commercial Computer Software - Restricted
 Rights clause in FAR 52.227-19.
  
 Gaussian, Inc.
 340 Quinnipiac St., Bldg. 40, Wallingford CT 06492
  
  
 ---------------------------------------------------------------
 Warning -- This program may not be used in any manner that
 competes with the business of Gaussian, Inc. or will provide
 assistance to any competitor of Gaussian, Inc.  The licensee
 of this program is prohibited from giving any competitor of
 Gaussian, Inc. access to this program.  By using this program,
 the user acknowledges that Gaussian, Inc. is engaged in the
 business of creating and licensing software in the field of
 computational chemistry and represents and warrants to the
 licensee that it is not a competitor of Gaussian, Inc. and that
 it will not use this program in any manner prohibited above.
 ---------------------------------------------------------------
  

 Cite this work as:
 Gaussian Development Version, Revision I.01+,
 M. J. Frisch, G. W. Trucks, H. B. Schlegel, G. E. Scuseria, 
 M. A. Robb, J. R. Cheeseman, G. Scalmani, V. Barone, B. Mennucci, 
 G. A. Petersson, H. Nakatsuji, M. Caricato, X. Li, H. P. Hratchian, 
 A. F. Izmaylov, J. Bloino, B. G. Janesko, F. Lipparini, G. Zheng, 
 J. L. Sonnenberg, W. Liang, M. Hada, M. Ehara, K. Toyota, R. Fukuda, 
 J. Hasegawa, M. Ishida, T. Nakajima, Y. Honda, O. Kitao, H. Nakai, 
 T. Vreven, J. A. Montgomery, Jr., J. E. Peralta, F. Ogliaro, 
 M. Bearpark, J. J. Heyd, E. Brothers, K. N. Kudin, V. N. Staroverov, 
 T. Keith, R. Kobayashi, J. Normand, K. Raghavachari, A. Rendell, 
 J. C. Burant, S. S. Iyengar, J. Tomasi, M. Cossi, N. Rega, 
 J. M. Millam, M. Klene, J. E. Knox, J. B. Cross, V. Bakken, 
 C. Adamo, J. Jaramillo, R. Gomperts, R. E. Stratmann, O. Yazyev, 
 A. J. Austin, R. Cammi, C. Pomelli, J. W. Ochterski, R. L. Martin, 
 K. Morokuma, V. G. Zakrzewski, G. A. Voth, P. Salvador, 
 J. J. Dannenberg, S. Dapprich, P. V. Parandekar, N. J. Mayhall, 
 A. D. Daniels, O. Farkas, J. B. Foresman, J. V. Ortiz, 
 J. Cioslowski, and D. J. Fox, Gaussian, Inc., Wallingford CT, 2010.
 
 *******************************************
 Gaussian DV:  ES64L-GDVRevI.01+ 11-Sep-2014
                 22-Sep-2015 
 *******************************************
 ----------------------
 #p rohf/cc-pVDZ nosymm
 ----------------------
 1/38=1,172=1/1;
 2/12=2,15=1,17=6,18=5,40=1/2;
 3/5=16,11=2,25=1,30=1,116=101/1,2,3;
 4//1;
 5/5=2,38=5/2;
 6/7=2,8=2,9=2,10=2,28=1/1;
 99/5=1,9=1/99;
 Leave Link    1 at Tue Sep 22 13:39:34 2015, MaxMem=           0 cpu:               0.0 elap:               0.0
 (Enter /home/gauss/gdvi01p/gdv/l101.exe)
 ------------
 MnO2 cc-pVDZ
 ------------
 Symbolic Z-matrix:
 Charge =  0 Multiplicity = 4
 Mn                    0.        0.        0. 
 O                     0.        0.        1.84053 
 O                     0.        0.       -1.84053 
 
 ITRead=  0  0  0
 MicOpt= -1 -1 -1
 NAtoms=      3 NQM=        3 NQMF=       0 NMMI=      0 NMMIF=      0
                NMic=       0 NMicF=      0.
                    Isotopes and Nuclear Properties:
 (Nuclear quadrupole moments (NQMom) in fm**2, nuclear magnetic moments (NMagM)
  in nuclear magnetons)

  Atom         1           2           3
 IAtWgt=          55          16          16
 AtmWgt=  54.9380463  15.9949146  15.9949146
 NucSpn=           5           0           0
 AtZEff=   0.0000000   0.0000000   0.0000000
 NQMom=   33.0000000   0.0000000   0.0000000
 NMagM=    3.4532000   0.0000000   0.0000000
 AtZNuc=  25.0000000   8.0000000   8.0000000
 Leave Link  101 at Tue Sep 22 13:39:34 2015, MaxMem=    33554432 cpu:               0.1 elap:               0.1
 (Enter /home/gauss/gdvi01p/gdv/l202.exe)
                          Input orientation:                          
 ---------------------------------------------------------------------
 Center     Atomic      Atomic             Coordinates (Angstroms)
 Number     Number       Type             X           Y           Z
 ---------------------------------------------------------------------
      1         25           0        0.000000    0.000000    0.000000
      2          8           0        0.000000    0.000000    1.840528
      3          8           0        0.000000    0.000000   -1.840528
 ---------------------------------------------------------------------
                    Distance matrix (angstroms):
                    1          2          3
     1  Mn   0.000000
     2  O    1.840528   0.000000
     3  O    1.840528   3.681056   0.000000
 Symmetry turned off by external request.
 Stoichiometry    MnO2(4)
 Framework group  D*H[O(Mn),C*(O.O)]
 Deg. of freedom     1
 Full point group                 D*H     NOp   8
 Rotational constants (GHZ):      0.0000000      4.6635906      4.6635906
 Leave Link  202 at Tue Sep 22 13:39:34 2015, MaxMem=    33554432 cpu:               0.0 elap:               0.0
 (Enter /home/gauss/gdvi01p/gdv/l301.exe)
 Standard basis: CC-pVDZ (5D, 7F)
 Ernie: Thresh=  0.10000D-02 Tol=  0.10000D-05 Strict=F.
 Ernie:  69 primitive shells out of 229 were deleted.
    71 basis functions,   354 primitive gaussians,    79 cartesian basis functions
    22 alpha electrons       19 beta electrons
       nuclear repulsion energy       124.2059643306 Hartrees.
 IExCor=    0 DFT=F Ex=HF Corr=None ExCW=0 ScaHFX=  1.000000
 ScaDFX=  1.000000  1.000000  1.000000  1.000000 ScalE2=  1.000000  1.000000
 IRadAn=      0 IRanWt=     -1 IRanGd=            0 ICorTp=0 IEmpDi=  4
 NAtoms=    3 NActive=    3 NUniq=    3 SFac= 1.00D+00 NAtFMM=   60 NAOKFM=F Big=F
 Integral buffers will be    131072 words long.
 Raffenetti 2 integral format.
 Two-electron integral symmetry is turned off.
 Leave Link  301 at Tue Sep 22 13:39:35 2015, MaxMem=    33554432 cpu:               0.0 elap:               0.1
 (Enter /home/gauss/gdvi01p/gdv/l302.exe)
 NPDir=0 NMtPBC=     1 NCelOv=     1 NCel=       1 NClECP=     1 NCelD=      1
         NCelK=      1 NCelE2=     1 NClLst=     1 CellRange=     0.0.
 One-electron integrals computed using PRISM.
 One-electron integral symmetry used in STVInt
 NBasis=    71 RedAO= T EigKep=  1.11D-02  NBF=    71
 NBsUse=    71 1.00D-06 EigRej= -1.00D+00 NBFU=    71
 Leave Link  302 at Tue Sep 22 13:39:35 2015, MaxMem=    33554432 cpu:               0.1 elap:               0.1
 (Enter /home/gauss/gdvi01p/gdv/l303.exe)
 DipDrv:  MaxL=1.
 Leave Link  303 at Tue Sep 22 13:39:35 2015, MaxMem=    33554432 cpu:               0.0 elap:               0.0
 (Enter /home/gauss/gdvi01p/gdv/l401.exe)
 ExpMin= 2.96D-02 ExpMax= 3.96D+06 ExpMxC= 4.50D+03 IAcc=3 IRadAn=         5 AccDes= 0.00D+00
 Harris functional with IExCor=  205 and IRadAn=       5 diagonalized for initial guess.
 HarFok:  IExCor=  205 AccDes= 0.00D+00 IRadAn=         5 IDoV= 1 UseB2=F ITyADJ=14
 ICtDFT=  3500011 ScaDFX=  1.000000  1.000000  1.000000  1.000000
 FoFCou: FMM=F IPFlag=           0 FMFlag=      100000 FMFlg1=           0
         NFxFlg=           0 DoJE=T BraDBF=F KetDBF=T FulRan=T
         wScrn=  0.000000 ICntrl=       500 IOpCl=  0 I1Cent=   200000004 NGrid=           0
         NMat0=    1 NMatS0=      1 NMatT0=    0 NMatD0=    1 NMtDS0=    0 NMtDT0=    0
 Symmetry not used in FoFCou.
 Harris En= -1298.92760200917    
 JPrj=0 DoOrth=F DoCkMO=F.
 Leave Link  401 at Tue Sep 22 13:39:35 2015, MaxMem=    33554432 cpu:               0.5 elap:               0.5
 (Enter /home/gauss/gdvi01p/gdv/l502.exe)
 Keep R1 and R2 ints in memory in canonical form, NReq=9673094.
 FoFCou: FMM=F IPFlag=           0 FMFlag=           0 FMFlg1=           0
         NFxFlg=           0 DoJE=F BraDBF=F KetDBF=F FulRan=T
         wScrn=  0.000000 ICntrl=       600 IOpCl=  0 I1Cent=           0 NGrid=           0
         NMat0=    1 NMatS0=   2556 NMatT0=    0 NMatD0=    1 NMtDS0=    0 NMtDT0=    0
 Symmetry not used in FoFCou.
 Two-electron integral symmetry not used.
 Restricted open shell SCF:
 Using DIIS extrapolation, IDIIS=  1040.
 NGot=    33554432 LenX=    27005136 LenY=    26998454
 Requested convergence on RMS density matrix=1.00D-08 within 128 cycles.
 Requested convergence on MAX density matrix=1.00D-06.
 Requested convergence on             energy=1.00D-06.
 No special actions if energy rises.

 Cycle   1  Pass 1  IDiag  1:
 E= -1297.99925625709    
 DIIS: error= 1.76D-01 at cycle   1 NSaved=   1.
 NSaved= 1 IEnMin= 1 EnMin= -1297.99925625709     IErMin= 1 ErrMin= 1.76D-01
 ErrMax= 1.76D-01  0.00D+00 EMaxC= 1.00D-01 BMatC= 1.91D+00 BMatP= 1.91D+00
 IDIUse=3 WtCom= 0.00D+00 WtEn= 1.00D+00
 Coeff-Com:  0.100D+01
 Coeff-En:   0.100D+01
 Coeff:      0.100D+01
 Gap=    -0.155 Goal=   None    Shift=    0.000
 GapD=   -0.155 DampG=0.250 DampE=0.125 DampFc=0.1250 IDamp=-1.
 Damping current iteration by 1.25D-01
 RMSDP=4.83D-02 MaxDP=9.79D-01              OVMax= 8.68D-01

 Cycle   2  Pass 1  IDiag  1:
 E= -1298.31599145883     Delta-E=       -0.316735201741 Rises=F Damp=T
 DIIS: error= 6.72D-02 at cycle   2 NSaved=   2.
 NSaved= 2 IEnMin= 2 EnMin= -1298.31599145883     IErMin= 2 ErrMin= 6.72D-02
 ErrMax= 6.72D-02  0.00D+00 EMaxC= 1.00D-01 BMatC= 3.02D-01 BMatP= 1.91D+00
 IDIUse=3 WtCom= 3.28D-01 WtEn= 6.72D-01
 Coeff-Com: -0.407D+00 0.141D+01
 Coeff-En:   0.000D+00 0.100D+01
 Coeff:     -0.134D+00 0.113D+01
 Gap=     0.011 Goal=   None    Shift=    0.000
 RMSDP=1.86D-02 MaxDP=4.97D-01 DE=-3.17D-01 OVMax= 5.19D-01

 Cycle   3  Pass 1  IDiag  1:
 E= -1295.31311089800     Delta-E=        3.002880560827 Rises=F Damp=F
 DIIS: error= 3.81D-01 at cycle   3 NSaved=   3.
 NSaved= 3 IEnMin= 2 EnMin= -1298.31599145883     IErMin= 2 ErrMin= 6.72D-02
 ErrMax= 3.81D-01  0.00D+00 EMaxC= 1.00D-01 BMatC= 5.51D+00 BMatP= 3.02D-01
 IDIUse=2 WtCom= 0.00D+00 WtEn= 1.00D+00
 Rare condition: small coef for last iteration:  0.000D+00
 Coeff-En:   0.827D+00 0.000D+00 0.173D+00
 Coeff:      0.827D+00 0.000D+00 0.173D+00
 Gap=     0.064 Goal=   None    Shift=    0.000
 RMSDP=1.52D-02 MaxDP=2.82D-01 DE= 3.00D+00 OVMax= 3.10D-01

 Cycle   4  Pass 1  IDiag  1:
 E= -1290.51224561037     Delta-E=        4.800865287630 Rises=F Damp=F
 DIIS: error= 4.97D-01 at cycle   4 NSaved=   4.
 NSaved= 4 IEnMin= 2 EnMin= -1298.31599145883     IErMin= 2 ErrMin= 6.72D-02
 ErrMax= 4.97D-01  0.00D+00 EMaxC= 1.00D-01 BMatC= 1.23D+01 BMatP= 3.02D-01
 IDIUse=2 WtCom= 0.00D+00 WtEn= 1.00D+00
 Rare condition: small coef for last iteration:  0.000D+00
 Coeff-En:   0.916D+00 0.000D+00 0.000D+00 0.842D-01
 Coeff:      0.916D+00 0.000D+00 0.000D+00 0.842D-01
 Gap=     0.076 Goal=   None    Shift=    0.000
 RMSDP=7.18D-03 MaxDP=1.81D-01 DE= 4.80D+00 OVMax= 1.53D-01

 Cycle   5  Pass 1  IDiag  1:
 E= -1287.60259632111     Delta-E=        2.909649289264 Rises=F Damp=F
 DIIS: error= 4.57D-01 at cycle   5 NSaved=   5.
 NSaved= 5 IEnMin= 2 EnMin= -1298.31599145883     IErMin= 2 ErrMin= 6.72D-02
 ErrMax= 4.57D-01  0.00D+00 EMaxC= 1.00D-01 BMatC= 1.51D+01 BMatP= 3.02D-01
 IDIUse=2 WtCom= 0.00D+00 WtEn= 1.00D+00
 EnCoef did   100 forward-backward iterations
 Rare condition: small coef for last iteration:  0.000D+00
 Coeff-En:   0.940D+00 0.000D+00 0.000D+00 0.000D+00 0.599D-01
 Coeff:      0.940D+00 0.000D+00 0.000D+00 0.000D+00 0.599D-01
 Gap=     0.090 Goal=   None    Shift=    0.000
 RMSDP=3.18D-03 MaxDP=8.95D-02 DE= 2.91D+00 OVMax= 4.60D-02

 Cycle   6  Pass 1  IDiag  1:
 E= -1286.60579336978     Delta-E=        0.996802951323 Rises=F Damp=F
 DIIS: error= 4.44D-01 at cycle   6 NSaved=   6.
 NSaved= 6 IEnMin= 2 EnMin= -1298.31599145883     IErMin= 2 ErrMin= 6.72D-02
 ErrMax= 4.44D-01  0.00D+00 EMaxC= 1.00D-01 BMatC= 1.60D+01 BMatP= 3.02D-01
 IDIUse=2 WtCom= 0.00D+00 WtEn= 1.00D+00
 EnCoef did   100 forward-backward iterations
 Rare condition: small coef for last iteration:  0.000D+00
 Coeff-En:   0.947D+00 0.000D+00 0.000D+00 0.000D+00 0.000D+00 0.534D-01
 Coeff:      0.947D+00 0.000D+00 0.000D+00 0.000D+00 0.000D+00 0.534D-01
 Gap=     0.092 Goal=   None    Shift=    0.000
 RMSDP=1.02D-03 MaxDP=3.05D-02 DE= 9.97D-01 OVMax= 1.21D-02

 Cycle   7  Pass 1  IDiag  1:
 E= -1286.31695102356     Delta-E=        0.288842346224 Rises=F Damp=F
 DIIS: error= 4.46D-01 at cycle   7 NSaved=   7.
 NSaved= 7 IEnMin= 2 EnMin= -1298.31599145883     IErMin= 2 ErrMin= 6.72D-02
 ErrMax= 4.46D-01  0.00D+00 EMaxC= 1.00D-01 BMatC= 1.62D+01 BMatP= 3.02D-01
 IDIUse=2 WtCom= 0.00D+00 WtEn= 1.00D+00
 EnCoef did   100 forward-backward iterations
 Rare condition: small coef for last iteration:  0.000D+00
 Coeff-En:   0.948D+00 0.000D+00 0.000D+00 0.000D+00 0.000D+00 0.000D+00
 Coeff-En:   0.518D-01
 Coeff:      0.948D+00 0.000D+00 0.000D+00 0.000D+00 0.000D+00 0.000D+00
 Coeff:      0.518D-01
 Gap=     0.092 Goal=   None    Shift=    0.000
 RMSDP=2.77D-04 MaxDP=8.40D-03 DE= 2.89D-01 OVMax= 3.09D-03

 Cycle   8  Pass 1  IDiag  1:
 E= -1286.24112553502     Delta-E=        0.075825488541 Rises=F Damp=F
 DIIS: error= 4.47D-01 at cycle   8 NSaved=   8.
 NSaved= 8 IEnMin= 2 EnMin= -1298.31599145883     IErMin= 2 ErrMin= 6.72D-02
 ErrMax= 4.47D-01  0.00D+00 EMaxC= 1.00D-01 BMatC= 1.63D+01 BMatP= 3.02D-01
 IDIUse=2 WtCom= 0.00D+00 WtEn= 1.00D+00
 EnCoef did   100 forward-backward iterations
 Rare condition: small coef for last iteration:  0.000D+00
 Coeff-En:   0.949D+00 0.000D+00 0.000D+00 0.000D+00 0.000D+00 0.000D+00
 Coeff-En:   0.000D+00 0.513D-01
 Coeff:      0.949D+00 0.000D+00 0.000D+00 0.000D+00 0.000D+00 0.000D+00
 Coeff:      0.000D+00 0.513D-01
 Gap=     0.092 Goal=   None    Shift=    0.000
 RMSDP=7.23D-05 MaxDP=2.20D-03 DE= 7.58D-02 OVMax= 7.92D-04

 Cycle   9  Pass 1  IDiag  1:
 E= -1286.22152448118     Delta-E=        0.019601053840 Rises=F Damp=F
 DIIS: error= 4.47D-01 at cycle   9 NSaved=   9.
 NSaved= 9 IEnMin= 2 EnMin= -1298.31599145883     IErMin= 2 ErrMin= 6.72D-02
 ErrMax= 4.47D-01  0.00D+00 EMaxC= 1.00D-01 BMatC= 1.63D+01 BMatP= 3.02D-01
 IDIUse=2 WtCom= 0.00D+00 WtEn= 1.00D+00
 EnCoef did   100 forward-backward iterations
 Rare condition: small coef for last iteration:  0.000D+00
 Coeff-En:   0.949D+00 0.000D+00 0.000D+00 0.000D+00 0.000D+00 0.000D+00
 Coeff-En:   0.000D+00 0.000D+00 0.512D-01
 Coeff:      0.949D+00 0.000D+00 0.000D+00 0.000D+00 0.000D+00 0.000D+00
 Coeff:      0.000D+00 0.000D+00 0.512D-01
 Gap=     0.092 Goal=   None    Shift=    0.000
 RMSDP=1.86D-05 MaxDP=5.66D-04 DE= 1.96D-02 OVMax= 2.03D-04

 Cycle  10  Pass 1  IDiag  1:
 E= -1286.21648833735     Delta-E=        0.005036143825 Rises=F Damp=F
 DIIS: error= 4.47D-01 at cycle  10 NSaved=  10.
 NSaved=10 IEnMin= 2 EnMin= -1298.31599145883     IErMin= 2 ErrMin= 6.72D-02
 ErrMax= 4.47D-01  0.00D+00 EMaxC= 1.00D-01 BMatC= 1.63D+01 BMatP= 3.02D-01
 IDIUse=2 WtCom= 0.00D+00 WtEn= 1.00D+00
 EnCoef did   100 forward-backward iterations
 Rare condition: small coef for last iteration:  0.000D+00
 Coeff-En:   0.949D+00 0.000D+00 0.000D+00 0.000D+00 0.000D+00 0.000D+00
 Coeff-En:   0.000D+00 0.000D+00 0.000D+00 0.512D-01
 Coeff:      0.949D+00 0.000D+00 0.000D+00 0.000D+00 0.000D+00 0.000D+00
 Coeff:      0.000D+00 0.000D+00 0.000D+00 0.512D-01
 Gap=     0.092 Goal=   None    Shift=    0.000
 RMSDP=4.78D-06 MaxDP=1.45D-04 DE= 5.04D-03 OVMax= 5.21D-05

 Cycle  11  Pass 1  IDiag  1:
 E= -1286.21519604637     Delta-E=        0.001292290980 Rises=F Damp=F
 DIIS: error= 4.47D-01 at cycle  11 NSaved=  11.
 NSaved=11 IEnMin= 2 EnMin= -1298.31599145883     IErMin= 2 ErrMin= 6.72D-02
 ErrMax= 4.47D-01  0.00D+00 EMaxC= 1.00D-01 BMatC= 1.63D+01 BMatP= 3.02D-01
 IDIUse=2 WtCom= 0.00D+00 WtEn= 1.00D+00
 EnCoef did   100 forward-backward iterations
 Rare condition: small coef for last iteration:  0.000D+00
 Coeff-En:   0.949D+00 0.000D+00 0.000D+00 0.000D+00 0.000D+00 0.000D+00
 Coeff-En:   0.000D+00 0.000D+00 0.000D+00 0.000D+00 0.512D-01
 Coeff:      0.949D+00 0.000D+00 0.000D+00 0.000D+00 0.000D+00 0.000D+00
 Coeff:      0.000D+00 0.000D+00 0.000D+00 0.000D+00 0.512D-01
 Gap=     0.092 Goal=   None    Shift=    0.000
 RMSDP=1.23D-06 MaxDP=3.73D-05 DE= 1.29D-03 OVMax= 1.34D-05

 Cycle  12  Pass 1  IDiag  1:
 E= -1286.21486456563     Delta-E=        0.000331480740 Rises=F Damp=F
 DIIS: error= 4.47D-01 at cycle  12 NSaved=  12.
 NSaved=12 IEnMin= 2 EnMin= -1298.31599145883     IErMin= 2 ErrMin= 6.72D-02
 ErrMax= 4.47D-01  0.00D+00 EMaxC= 1.00D-01 BMatC= 1.63D+01 BMatP= 3.02D-01
 IDIUse=2 WtCom= 0.00D+00 WtEn= 1.00D+00
 EnCoef did   100 forward-backward iterations
 Rare condition: small coef for last iteration:  0.000D+00
 Coeff-En:   0.949D+00 0.000D+00 0.000D+00 0.000D+00 0.000D+00 0.000D+00
 Coeff-En:   0.000D+00 0.000D+00 0.000D+00 0.000D+00 0.000D+00 0.512D-01
 Coeff:      0.949D+00 0.000D+00 0.000D+00 0.000D+00 0.000D+00 0.000D+00
 Coeff:      0.000D+00 0.000D+00 0.000D+00 0.000D+00 0.000D+00 0.512D-01
 Gap=     0.092 Goal=   None    Shift=    0.000
 RMSDP=3.15D-07 MaxDP=9.57D-06 DE= 3.31D-04 OVMax= 3.43D-06

 Cycle  13  Pass 1  IDiag  1:
 E= -1286.21477954637     Delta-E=        0.000085019267 Rises=F Damp=F
 DIIS: error= 4.47D-01 at cycle  13 NSaved=  13.
 NSaved=13 IEnMin= 2 EnMin= -1298.31599145883     IErMin= 2 ErrMin= 6.72D-02
 ErrMax= 4.47D-01  0.00D+00 EMaxC= 1.00D-01 BMatC= 1.63D+01 BMatP= 3.02D-01
 IDIUse=2 WtCom= 0.00D+00 WtEn= 1.00D+00
 EnCoef did   100 forward-backward iterations
 Rare condition: small coef for last iteration:  0.000D+00
 Coeff-En:   0.949D+00 0.000D+00 0.000D+00 0.000D+00 0.000D+00 0.000D+00
 Coeff-En:   0.000D+00 0.000D+00 0.000D+00 0.000D+00 0.000D+00 0.000D+00
 Coeff-En:   0.512D-01
 Coeff:      0.949D+00 0.000D+00 0.000D+00 0.000D+00 0.000D+00 0.000D+00
 Coeff:      0.000D+00 0.000D+00 0.000D+00 0.000D+00 0.000D+00 0.000D+00
 Coeff:      0.512D-01
 Gap=     0.092 Goal=   None    Shift=    0.000
 RMSDP=8.07D-08 MaxDP=2.45D-06 DE= 8.50D-05 OVMax= 8.79D-07

 Cycle  14  Pass 1  IDiag  1:
 E= -1286.21475774086     Delta-E=        0.000021805503 Rises=F Damp=F
 DIIS: error= 4.47D-01 at cycle  14 NSaved=  14.
 NSaved=14 IEnMin= 2 EnMin= -1298.31599145883     IErMin= 2 ErrMin= 6.72D-02
 ErrMax= 4.47D-01  0.00D+00 EMaxC= 1.00D-01 BMatC= 1.63D+01 BMatP= 3.02D-01
 IDIUse=2 WtCom= 0.00D+00 WtEn= 1.00D+00
 EnCoef did   100 forward-backward iterations
 Rare condition: small coef for last iteration:  0.000D+00
 Coeff-En:   0.949D+00 0.000D+00 0.000D+00 0.000D+00 0.000D+00 0.000D+00
 Coeff-En:   0.000D+00 0.000D+00 0.000D+00 0.000D+00 0.000D+00 0.000D+00
 Coeff-En:   0.000D+00 0.512D-01
 Coeff:      0.949D+00 0.000D+00 0.000D+00 0.000D+00 0.000D+00 0.000D+00
 Coeff:      0.000D+00 0.000D+00 0.000D+00 0.000D+00 0.000D+00 0.000D+00
 Coeff:      0.000D+00 0.512D-01
 Gap=     0.092 Goal=   None    Shift=    0.000
 RMSDP=2.07D-08 MaxDP=6.30D-07 DE= 2.18D-05 OVMax= 2.25D-07

 Cycle  15  Pass 1  IDiag  1:
 E= -1286.21475214829     Delta-E=        0.000005592572 Rises=F Damp=F
 DIIS: error= 4.47D-01 at cycle  15 NSaved=  15.
 NSaved=15 IEnMin= 2 EnMin= -1298.31599145883     IErMin= 2 ErrMin= 6.72D-02
 ErrMax= 4.47D-01  0.00D+00 EMaxC= 1.00D-01 BMatC= 1.63D+01 BMatP= 3.02D-01
 IDIUse=2 WtCom= 0.00D+00 WtEn= 1.00D+00
 EnCoef did   100 forward-backward iterations
 Rare condition: small coef for last iteration:  0.000D+00
 Coeff-En:   0.949D+00 0.000D+00 0.000D+00 0.000D+00 0.000D+00 0.000D+00
 Coeff-En:   0.000D+00 0.000D+00 0.000D+00 0.000D+00 0.000D+00 0.000D+00
 Coeff-En:   0.000D+00 0.000D+00 0.512D-01
 Coeff:      0.949D+00 0.000D+00 0.000D+00 0.000D+00 0.000D+00 0.000D+00
 Coeff:      0.000D+00 0.000D+00 0.000D+00 0.000D+00 0.000D+00 0.000D+00
 Coeff:      0.000D+00 0.000D+00 0.512D-01
 Gap=     0.092 Goal=   None    Shift=    0.000
 RMSDP=5.31D-09 MaxDP=1.61D-07 DE= 5.59D-06 OVMax= 5.78D-08

 Cycle  16  Pass 1  IDiag  1:
 E= -1286.21475071394     Delta-E=        0.000001434347 Rises=F Damp=F
 DIIS: error= 4.47D-01 at cycle  16 NSaved=  16.
 NSaved=16 IEnMin= 2 EnMin= -1298.31599145883     IErMin= 2 ErrMin= 6.72D-02
 ErrMax= 4.47D-01  0.00D+00 EMaxC= 1.00D-01 BMatC= 1.63D+01 BMatP= 3.02D-01
 IDIUse=2 WtCom= 0.00D+00 WtEn= 1.00D+00
 EnCoef did   100 forward-backward iterations
 Rare condition: small coef for last iteration:  0.000D+00
 Coeff-En:   0.949D+00 0.000D+00 0.000D+00 0.000D+00 0.000D+00 0.000D+00
 Coeff-En:   0.000D+00 0.000D+00 0.000D+00 0.000D+00 0.000D+00 0.000D+00
 Coeff-En:   0.000D+00 0.000D+00 0.000D+00 0.512D-01
 Coeff:      0.949D+00 0.000D+00 0.000D+00 0.000D+00 0.000D+00 0.000D+00
 Coeff:      0.000D+00 0.000D+00 0.000D+00 0.000D+00 0.000D+00 0.000D+00
 Coeff:      0.000D+00 0.000D+00 0.000D+00 0.512D-01
 Gap=     0.092 Goal=   None    Shift=    0.000
 RMSDP=1.36D-09 MaxDP=4.14D-08 DE= 1.43D-06 OVMax= 1.48D-08

 Cycle  17  Pass 1  IDiag  1:
 E= -1286.21475034607     Delta-E=        0.000000367871 Rises=F Damp=F
 DIIS: error= 4.47D-01 at cycle  17 NSaved=  17.
 NSaved=17 IEnMin= 2 EnMin= -1298.31599145883     IErMin= 2 ErrMin= 6.72D-02
 ErrMax= 4.47D-01  0.00D+00 EMaxC= 1.00D-01 BMatC= 1.63D+01 BMatP= 3.02D-01
 IDIUse=2 WtCom= 0.00D+00 WtEn= 1.00D+00
 EnCoef did   100 forward-backward iterations
 Rare condition: small coef for last iteration:  0.000D+00
 Coeff-En:   0.949D+00 0.000D+00 0.000D+00 0.000D+00 0.000D+00 0.000D+00
 Coeff-En:   0.000D+00 0.000D+00 0.000D+00 0.000D+00 0.000D+00 0.000D+00
 Coeff-En:   0.000D+00 0.000D+00 0.000D+00 0.000D+00 0.512D-01
 Coeff:      0.949D+00 0.000D+00 0.000D+00 0.000D+00 0.000D+00 0.000D+00
 Coeff:      0.000D+00 0.000D+00 0.000D+00 0.000D+00 0.000D+00 0.000D+00
 Coeff:      0.000D+00 0.000D+00 0.000D+00 0.000D+00 0.512D-01
 Gap=     0.092 Goal=   None    Shift=    0.000
 RMSDP=3.49D-10 MaxDP=1.06D-08 DE= 3.68D-07 OVMax= 3.80D-09

 Cycle  18  Pass 1  IDiag  1:
 E= -1286.21475025172     Delta-E=        0.000000094357 Rises=F Damp=F
 DIIS: error= 4.47D-01 at cycle  18 NSaved=  18.
 NSaved=18 IEnMin= 2 EnMin= -1298.31599145883     IErMin= 2 ErrMin= 6.72D-02
 ErrMax= 4.47D-01  0.00D+00 EMaxC= 1.00D-01 BMatC= 1.63D+01 BMatP= 3.02D-01
 IDIUse=2 WtCom= 0.00D+00 WtEn= 1.00D+00
 EnCoef did   100 forward-backward iterations
 Rare condition: small coef for last iteration:  0.000D+00
 Coeff-En:   0.949D+00 0.000D+00 0.000D+00 0.000D+00 0.000D+00 0.000D+00
 Coeff-En:   0.000D+00 0.000D+00 0.000D+00 0.000D+00 0.000D+00 0.000D+00
 Coeff-En:   0.000D+00 0.000D+00 0.000D+00 0.000D+00 0.000D+00 0.512D-01
 Coeff:      0.949D+00 0.000D+00 0.000D+00 0.000D+00 0.000D+00 0.000D+00
 Coeff:      0.000D+00 0.000D+00 0.000D+00 0.000D+00 0.000D+00 0.000D+00
 Coeff:      0.000D+00 0.000D+00 0.000D+00 0.000D+00 0.000D+00 0.512D-01
 Gap=     0.092 Goal=   None    Shift=    0.000
 RMSDP=8.96D-11 MaxDP=2.73D-09 DE= 9.44D-08 OVMax= 9.76D-10

 Cycle  19  Pass 1  IDiag  1:
 E= -1286.21475022751     Delta-E=        0.000000024209 Rises=F Damp=F
 DIIS: error= 4.47D-01 at cycle  19 NSaved=  19.
 NSaved=19 IEnMin= 2 EnMin= -1298.31599145883     IErMin= 2 ErrMin= 6.72D-02
 ErrMax= 4.47D-01  0.00D+00 EMaxC= 1.00D-01 BMatC= 1.63D+01 BMatP= 3.02D-01
 IDIUse=2 WtCom= 0.00D+00 WtEn= 1.00D+00
 EnCoef did   100 forward-backward iterations
 Rare condition: small coef for last iteration:  0.000D+00
 Coeff-En:   0.949D+00 0.000D+00 0.000D+00 0.000D+00 0.000D+00 0.000D+00
 Coeff-En:   0.000D+00 0.000D+00 0.000D+00 0.000D+00 0.000D+00 0.000D+00
 Coeff-En:   0.000D+00 0.000D+00 0.000D+00 0.000D+00 0.000D+00 0.000D+00
 Coeff-En:   0.512D-01
 Coeff:      0.949D+00 0.000D+00 0.000D+00 0.000D+00 0.000D+00 0.000D+00
 Coeff:      0.000D+00 0.000D+00 0.000D+00 0.000D+00 0.000D+00 0.000D+00
 Coeff:      0.000D+00 0.000D+00 0.000D+00 0.000D+00 0.000D+00 0.000D+00
 Coeff:      0.512D-01
 Gap=     0.092 Goal=   None    Shift=    0.000
 RMSDP=2.30D-11 MaxDP=6.99D-10 DE= 2.42D-08 OVMax= 2.50D-10

 Cycle  20  Pass 1  IDiag  1:
 E= -1286.21475022130     Delta-E=        0.000000006206 Rises=F Damp=F
 DIIS: error= 4.47D-01 at cycle  20 NSaved=  20.
 NSaved=20 IEnMin= 2 EnMin= -1298.31599145883     IErMin= 2 ErrMin= 6.72D-02
 ErrMax= 4.47D-01  0.00D+00 EMaxC= 1.00D-01 BMatC= 1.63D+01 BMatP= 3.02D-01
 IDIUse=2 WtCom= 0.00D+00 WtEn= 1.00D+00
 EnCoef did   100 forward-backward iterations
 Rare condition: small coef for last iteration:  0.000D+00
 Coeff-En:   0.949D+00 0.000D+00 0.000D+00 0.000D+00 0.000D+00 0.000D+00
 Coeff-En:   0.000D+00 0.000D+00 0.000D+00 0.000D+00 0.000D+00 0.000D+00
 Coeff-En:   0.000D+00 0.000D+00 0.000D+00 0.000D+00 0.000D+00 0.000D+00
 Coeff-En:   0.000D+00 0.512D-01
 Coeff:      0.949D+00 0.000D+00 0.000D+00 0.000D+00 0.000D+00 0.000D+00
 Coeff:      0.000D+00 0.000D+00 0.000D+00 0.000D+00 0.000D+00 0.000D+00
 Coeff:      0.000D+00 0.000D+00 0.000D+00 0.000D+00 0.000D+00 0.000D+00
 Coeff:      0.000D+00 0.512D-01
 Gap=     0.092 Goal=   None    Shift=    0.000
 RMSDP=5.90D-12 MaxDP=1.79D-10 DE= 6.21D-09 OVMax= 6.42D-11

 Cycle  21  Pass 1  IDiag  1:
 E= -1286.21475021971     Delta-E=        0.000000001592 Rises=F Damp=F
 DIIS: error= 4.47D-01 at cycle  21 NSaved=  20.
 NSaved=20 IEnMin= 2 EnMin= -1298.31599145883     IErMin= 2 ErrMin= 6.72D-02
 ErrMax= 4.47D-01  0.00D+00 EMaxC= 1.00D-01 BMatC= 1.63D+01 BMatP= 3.02D-01
 IDIUse=2 WtCom= 0.00D+00 WtEn= 1.00D+00
 EnCoef did   100 forward-backward iterations
 Rare condition: small coef for last iteration:  0.000D+00
 Coeff-En:   0.949D+00 0.000D+00 0.000D+00 0.000D+00 0.000D+00 0.000D+00
 Coeff-En:   0.000D+00 0.000D+00 0.000D+00 0.000D+00 0.000D+00 0.000D+00
 Coeff-En:   0.000D+00 0.000D+00 0.000D+00 0.000D+00 0.000D+00 0.000D+00
 Coeff-En:   0.000D+00 0.512D-01
 Coeff:      0.949D+00 0.000D+00 0.000D+00 0.000D+00 0.000D+00 0.000D+00
 Coeff:      0.000D+00 0.000D+00 0.000D+00 0.000D+00 0.000D+00 0.000D+00
 Coeff:      0.000D+00 0.000D+00 0.000D+00 0.000D+00 0.000D+00 0.000D+00
 Coeff:      0.000D+00 0.512D-01
 Gap=     0.092 Goal=   None    Shift=    0.000
 RMSDP=1.49D-12 MaxDP=4.53D-11 DE= 1.59D-09 OVMax= 1.63D-11

 Cycle  22  Pass 1  IDiag  1:
 E= -1286.21475021931     Delta-E=        0.000000000405 Rises=F Damp=F
 DIIS: error= 4.47D-01 at cycle  22 NSaved=  20.
 NSaved=20 IEnMin= 2 EnMin= -1298.31599145883     IErMin= 2 ErrMin= 6.72D-02
 ErrMax= 4.47D-01  0.00D+00 EMaxC= 1.00D-01 BMatC= 1.63D+01 BMatP= 3.02D-01
 IDIUse=2 WtCom= 0.00D+00 WtEn= 1.00D+00
 EnCoef did   100 forward-backward iterations
 Rare condition: small coef for last iteration:  0.000D+00
 Coeff-En:   0.949D+00 0.000D+00 0.000D+00 0.000D+00 0.000D+00 0.000D+00
 Coeff-En:   0.000D+00 0.000D+00 0.000D+00 0.000D+00 0.000D+00 0.000D+00
 Coeff-En:   0.000D+00 0.000D+00 0.000D+00 0.000D+00 0.000D+00 0.000D+00
 Coeff-En:   0.000D+00 0.512D-01
 Coeff:      0.949D+00 0.000D+00 0.000D+00 0.000D+00 0.000D+00 0.000D+00
 Coeff:      0.000D+00 0.000D+00 0.000D+00 0.000D+00 0.000D+00 0.000D+00
 Coeff:      0.000D+00 0.000D+00 0.000D+00 0.000D+00 0.000D+00 0.000D+00
 Coeff:      0.000D+00 0.512D-01
 Gap=     0.092 Goal=   None    Shift=    0.000
 RMSDP=3.92D-13 MaxDP=1.19D-11 DE= 4.05D-10 OVMax= 4.24D-12

 Density matrix is not changing but DIIS error= 4.47D-01 CofLast= 0.00D+00.
 Cycle  23  Pass 1  IDiag  1:
 E= -1286.21475021920     Delta-E=        0.000000000104 Rises=F Damp=F
 DIIS: error= 4.47D-01 at cycle   1 NSaved=   1.
 NSaved= 1 IEnMin= 1 EnMin= -1286.21475021920     IErMin= 1 ErrMin= 4.47D-01
 ErrMax= 4.47D-01  0.00D+00 EMaxC= 1.00D+00 BMatC= 1.63D+01 BMatP= 1.63D+01
 IDIUse=1 WtCom= 1.00D+00 WtEn= 0.00D+00
 Coeff-Com:  0.100D+01
 Coeff:      0.100D+01
 Gap=     0.090 Goal=   None    Shift=    0.000
 RMSDP=1.67D-01 MaxDP=4.86D+00 DE= 1.04D-10 OVMax= 9.84D-01

 Cycle  24  Pass 1  IDiag  1:
 E= -1238.19381669007     Delta-E=       48.020933529127 Rises=F Damp=F
 DIIS: error= 5.26D-01 at cycle  24 NSaved=   2.
 NSaved= 2 IEnMin= 1 EnMin= -1286.21475021920     IErMin= 1 ErrMin= 4.47D-01
 ErrMax= 5.26D-01  0.00D+00 EMaxC= 1.00D+00 BMatC= 2.14D+01 BMatP= 1.63D+01
 IDIUse=1 WtCom= 1.00D+00 WtEn= 0.00D+00
 Coeff-Com:  0.553D+00 0.447D+00
 Coeff:      0.553D+00 0.447D+00
 Gap=    -0.023 Goal=   None    Shift=    0.000
 RMSDP=1.65D-01 MaxDP=4.68D+00 DE= 4.80D+01 OVMax= 9.73D-01

 Cycle  25  Pass 1  IDiag  1:
 E= -1284.80292998397     Delta-E=      -46.609113293894 Rises=F Damp=F
 DIIS: error= 4.97D-01 at cycle  25 NSaved=   3.
 NSaved= 3 IEnMin= 1 EnMin= -1286.21475021920     IErMin= 1 ErrMin= 4.47D-01
 ErrMax= 4.97D-01  0.00D+00 EMaxC= 1.00D+00 BMatC= 1.54D+01 BMatP= 1.63D+01
 IDIUse=1 WtCom= 1.00D+00 WtEn= 0.00D+00
 Coeff-Com:  0.295D+00 0.419D+00 0.286D+00
 Coeff:      0.295D+00 0.419D+00 0.286D+00
 Gap=    -0.047 Goal=   None    Shift=    0.000
 RMSDP=2.14D-02 MaxDP=4.84D-01 DE=-4.66D+01 OVMax= 1.00D+00

 Cycle  26  Pass 1  IDiag  1:
 E= -1287.35768753535     Delta-E=       -2.554757551387 Rises=F Damp=F
 DIIS: error= 4.61D-01 at cycle  26 NSaved=   4.
 NSaved= 4 IEnMin= 4 EnMin= -1287.35768753535     IErMin= 1 ErrMin= 4.47D-01
 ErrMax= 4.61D-01  0.00D+00 EMaxC= 1.00D+00 BMatC= 1.31D+01 BMatP= 1.54D+01
 IDIUse=1 WtCom= 1.00D+00 WtEn= 0.00D+00
 Coeff-Com: -0.123D+00 0.400D+00 0.360D-01 0.686D+00
 Coeff:     -0.123D+00 0.400D+00 0.360D-01 0.686D+00
 Gap=    -0.084 Goal=   None    Shift=    0.000
 RMSDP=1.46D-02 MaxDP=4.05D-01 DE=-2.55D+00 OVMax= 1.00D+00

 Cycle  27  Pass 1  IDiag  1:
 E= -1287.92904565783     Delta-E=       -0.571358122475 Rises=F Damp=F
 DIIS: error= 4.51D-01 at cycle  27 NSaved=   5.
 NSaved= 5 IEnMin= 5 EnMin= -1287.92904565783     IErMin= 1 ErrMin= 4.47D-01
 ErrMax= 4.51D-01  0.00D+00 EMaxC= 1.00D+00 BMatC= 1.20D+01 BMatP= 1.31D+01
 IDIUse=1 WtCom= 1.00D+00 WtEn= 0.00D+00
 Coeff-Com:  0.429D+00 0.269D+00-0.281D+01-0.627D+00 0.374D+01
 Coeff:      0.429D+00 0.269D+00-0.281D+01-0.627D+00 0.374D+01
 Gap=    -0.063 Goal=   None    Shift=    0.000
 RMSDP=1.81D-02 MaxDP=4.15D-01 DE=-5.71D-01 OVMax= 1.00D+00

 Cycle  28  Pass 1  IDiag  1:
 E= -1289.90831997542     Delta-E=       -1.979274317586 Rises=F Damp=F
 DIIS: error= 4.23D-01 at cycle  28 NSaved=   6.
 NSaved= 6 IEnMin= 6 EnMin= -1289.90831997542     IErMin= 6 ErrMin= 4.23D-01
 ErrMax= 4.23D-01  0.00D+00 EMaxC= 1.00D+00 BMatC= 1.01D+01 BMatP= 1.20D+01
 IDIUse=1 WtCom= 1.00D+00 WtEn= 0.00D+00
 Coeff-Com:  0.430D+00 0.269D+00-0.266D+01-0.738D+00 0.356D+01 0.133D+00
 Coeff:      0.430D+00 0.269D+00-0.266D+01-0.738D+00 0.356D+01 0.133D+00
 Gap=     0.194 Goal=   None    Shift=    0.000
 RMSDP=6.60D-04 MaxDP=1.16D-02 DE=-1.98D+00 OVMax= 8.02D-03

 Cycle  29  Pass 1  IDiag  1:
 E= -1290.06434020659     Delta-E=       -0.156020231172 Rises=F Damp=F
 DIIS: error= 4.18D-01 at cycle  29 NSaved=   7.
 NSaved= 7 IEnMin= 7 EnMin= -1290.06434020659     IErMin= 7 ErrMin= 4.18D-01
 ErrMax= 4.18D-01  0.00D+00 EMaxC= 1.00D+00 BMatC= 9.89D+00 BMatP= 1.01D+01
 IDIUse=1 WtCom= 1.00D+00 WtEn= 0.00D+00
 Large coefficients: NSaved=  7 BigCof=   40.99 CofMax=   10.00 Det=-6.73D-04
 Inversion failed.  Reducing to  6 matrices.
 Large coefficients: NSaved=  6 BigCof=   55.89 CofMax=   10.00 Det=-7.83D-04
 Inversion failed.  Reducing to  5 matrices.
 Large coefficients: NSaved=  5 BigCof=   61.44 CofMax=   10.00 Det=-1.22D-03
 Inversion failed.  Reducing to  4 matrices.
 Large coefficients: NSaved=  4 BigCof=   53.02 CofMax=   10.00 Det=-1.50D-03
 Inversion failed.  Reducing to  3 matrices.
 Large coefficients: NSaved=  3 BigCof=   57.50 CofMax=   10.00 Det=-1.50D-03
 Inversion failed.  Reducing to  2 matrices.
 Large coefficients: NSaved=  2 BigCof=   42.82 CofMax=   10.00 Det=-1.94D-03
 Coeff-Com: -0.418D+02 0.428D+02
 Coeff:     -0.418D+02 0.428D+02
 Gap=     0.119 Goal=   None    Shift=    0.000
 RMSDP=8.99D-02 MaxDP=3.10D+00 DE=-1.56D-01 OVMax= 9.98D-01

 Cycle  30  Pass 1  IDiag  1:
 E= -1285.92954136296     Delta-E=        4.134798843632 Rises=F Damp=F
 DIIS: error= 3.85D-01 at cycle  30 NSaved=   3.
 NSaved= 3 IEnMin= 2 EnMin= -1290.06434020659     IErMin= 3 ErrMin= 3.85D-01
 ErrMax= 3.85D-01  0.00D+00 EMaxC= 1.00D+00 BMatC= 1.11D+01 BMatP= 9.89D+00
 IDIUse=1 WtCom= 1.00D+00 WtEn= 0.00D+00
 Large coefficients: NSaved=  3 BigCof=   19.16 CofMax=   10.00 Det=-1.54D-03
 Inversion failed.  Reducing to  2 matrices.
 Coeff-Com:  0.519D+00 0.481D+00
 Coeff:      0.519D+00 0.481D+00
 Gap=     0.003 Goal=   None    Shift=    0.000
 RMSDP=8.67D-02 MaxDP=3.10D+00 DE= 4.13D+00 OVMax= 9.58D-01

 Cycle  31  Pass 1  IDiag  1:
 E= -1297.91681898492     Delta-E=      -11.987277621965 Rises=F Damp=F
 DIIS: error= 2.08D-01 at cycle  31 NSaved=   3.
 NSaved= 3 IEnMin= 3 EnMin= -1297.91681898492     IErMin= 3 ErrMin= 2.08D-01
 ErrMax= 2.08D-01  0.00D+00 EMaxC= 1.00D+00 BMatC= 1.21D+00 BMatP= 9.89D+00
 IDIUse=1 WtCom= 1.00D+00 WtEn= 0.00D+00
 Coeff-Com: -0.984D-01 0.164D+00 0.935D+00
 Coeff:     -0.984D-01 0.164D+00 0.935D+00
 Gap=     0.179 Goal=   None    Shift=    0.000
 RMSDP=9.17D-03 MaxDP=1.64D-01 DE=-1.20D+01 OVMax= 3.45D-01

 Cycle  32  Pass 1  IDiag  1:
 E= -1298.95692904876     Delta-E=       -1.040110063843 Rises=F Damp=F
 DIIS: error= 3.55D-02 at cycle  32 NSaved=   4.
 NSaved= 4 IEnMin= 4 EnMin= -1298.95692904876     IErMin= 4 ErrMin= 3.55D-02
 ErrMax= 3.55D-02  0.00D+00 EMaxC= 1.00D+00 BMatC= 7.29D-02 BMatP= 1.21D+00
 IDIUse=1 WtCom= 1.00D+00 WtEn= 0.00D+00
 Coeff-Com: -0.599D-01-0.111D-01 0.401D-01 0.103D+01
 Coeff:     -0.599D-01-0.111D-01 0.401D-01 0.103D+01
 Gap=     0.282 Goal=   None    Shift=    0.000
 RMSDP=4.33D-03 MaxDP=5.21D-02 DE=-1.04D+00 OVMax= 1.35D-01

 Cycle  33  Pass 1  IDiag  1:
 E= -1299.04707027330     Delta-E=       -0.090141224532 Rises=F Damp=F
 DIIS: error= 1.20D-02 at cycle  33 NSaved=   5.
 NSaved= 5 IEnMin= 5 EnMin= -1299.04707027330     IErMin= 5 ErrMin= 1.20D-02
 ErrMax= 1.20D-02  0.00D+00 EMaxC= 1.00D+00 BMatC= 1.34D-02 BMatP= 7.29D-02
 IDIUse=1 WtCom= 1.00D+00 WtEn= 0.00D+00
 Coeff-Com:  0.166D-01-0.246D-02-0.627D-01 0.231D+00 0.818D+00
 Coeff:      0.166D-01-0.246D-02-0.627D-01 0.231D+00 0.818D+00
 Gap=     0.153 Goal=   None    Shift=    0.000
 RMSDP=2.81D-03 MaxDP=1.05D-01 DE=-9.01D-02 OVMax= 9.57D-02

 Cycle  34  Pass 1  IDiag  1:
 E= -1299.06393888965     Delta-E=       -0.016868616359 Rises=F Damp=F
 DIIS: error= 6.56D-03 at cycle  34 NSaved=   6.
 NSaved= 6 IEnMin= 6 EnMin= -1299.06393888965     IErMin= 6 ErrMin= 6.56D-03
 ErrMax= 6.56D-03  0.00D+00 EMaxC= 1.00D+00 BMatC= 3.22D-03 BMatP= 1.34D-02
 IDIUse=1 WtCom= 1.00D+00 WtEn= 0.00D+00
 Coeff-Com:  0.116D-01-0.233D-02 0.184D-01-0.142D+00-0.300D-01 0.114D+01
 Coeff:      0.116D-01-0.233D-02 0.184D-01-0.142D+00-0.300D-01 0.114D+01
 Gap=     0.144 Goal=   None    Shift=    0.000
 RMSDP=1.35D-03 MaxDP=5.09D-02 DE=-1.69D-02 OVMax= 3.96D-02

 Cycle  35  Pass 1  IDiag  1:
 E= -1299.06592072496     Delta-E=       -0.001981835306 Rises=F Damp=F
 DIIS: error= 5.90D-03 at cycle  35 NSaved=   7.
 NSaved= 7 IEnMin= 7 EnMin= -1299.06592072496     IErMin= 7 ErrMin= 5.90D-03
 ErrMax= 5.90D-03  0.00D+00 EMaxC= 1.00D+00 BMatC= 2.07D-03 BMatP= 3.22D-03
 IDIUse=1 WtCom= 1.00D+00 WtEn= 0.00D+00
 Coeff-Com:  0.468D-02-0.287D-02 0.311D-01-0.770D-01-0.200D+00 0.330D+00
 Coeff-Com:  0.914D+00
 Coeff:      0.468D-02-0.287D-02 0.311D-01-0.770D-01-0.200D+00 0.330D+00
 Coeff:      0.914D+00
 Gap=     0.152 Goal=   None    Shift=    0.000
 RMSDP=2.04D-03 MaxDP=9.76D-02 DE=-1.98D-03 OVMax= 6.95D-02

 Cycle  36  Pass 1  IDiag  1:
 E= -1299.06689261515     Delta-E=       -0.000971890186 Rises=F Damp=F
 DIIS: error= 4.98D-03 at cycle  36 NSaved=   8.
 NSaved= 8 IEnMin= 8 EnMin= -1299.06689261515     IErMin= 8 ErrMin= 4.98D-03
 ErrMax= 4.98D-03  0.00D+00 EMaxC= 1.00D+00 BMatC= 7.97D-04 BMatP= 2.07D-03
 IDIUse=1 WtCom= 1.00D+00 WtEn= 0.00D+00
 Coeff-Com:  0.161D-02-0.189D-02 0.208D-01-0.128D-01-0.143D+00-0.103D+00
 Coeff-Com:  0.592D+00 0.646D+00
 Coeff:      0.161D-02-0.189D-02 0.208D-01-0.128D-01-0.143D+00-0.103D+00
 Coeff:      0.592D+00 0.646D+00
 Gap=     0.157 Goal=   None    Shift=    0.000
 RMSDP=1.53D-03 MaxDP=7.02D-02 DE=-9.72D-04 OVMax= 4.50D-02

 Cycle  37  Pass 1  IDiag  1:
 E= -1299.06762093404     Delta-E=       -0.000728318897 Rises=F Damp=F
 DIIS: error= 2.18D-03 at cycle  37 NSaved=   9.
 NSaved= 9 IEnMin= 9 EnMin= -1299.06762093404     IErMin= 9 ErrMin= 2.18D-03
 ErrMax= 2.18D-03  0.00D+00 EMaxC= 1.00D+00 BMatC= 2.35D-04 BMatP= 7.97D-04
 IDIUse=1 WtCom= 1.00D+00 WtEn= 0.00D+00
 Coeff-Com:  0.397D-03-0.128D-03 0.748D-03 0.168D-01 0.231D-01-0.117D-01
 Coeff-Com: -0.357D+00 0.574D-01 0.127D+01
 Coeff:      0.397D-03-0.128D-03 0.748D-03 0.168D-01 0.231D-01-0.117D-01
 Coeff:     -0.357D+00 0.574D-01 0.127D+01
 Gap=     0.163 Goal=   None    Shift=    0.000
 RMSDP=3.26D-04 MaxDP=1.35D-02 DE=-7.28D-04 OVMax= 1.05D-02

 Cycle  38  Pass 1  IDiag  1:
 E= -1299.06784025871     Delta-E=       -0.000219324664 Rises=F Damp=F
 DIIS: error= 3.12D-04 at cycle  38 NSaved=  10.
 NSaved=10 IEnMin=10 EnMin= -1299.06784025871     IErMin=10 ErrMin= 3.12D-04
 ErrMax= 3.12D-04  0.00D+00 EMaxC= 1.00D+00 BMatC= 1.24D-05 BMatP= 2.35D-04
 IDIUse=1 WtCom= 1.00D+00 WtEn= 0.00D+00
 Coeff-Com:  0.918D-04 0.493D-04-0.201D-04 0.334D-02 0.111D-01 0.223D-01
 Coeff-Com: -0.196D+00-0.380D-01 0.515D+00 0.682D+00
 Coeff:      0.918D-04 0.493D-04-0.201D-04 0.334D-02 0.111D-01 0.223D-01
 Coeff:     -0.196D+00-0.380D-01 0.515D+00 0.682D+00
 Gap=     0.163 Goal=   None    Shift=    0.000
 RMSDP=1.03D-04 MaxDP=1.95D-03 DE=-2.19D-04 OVMax= 2.46D-03

 Cycle  39  Pass 1  IDiag  1:
 E= -1299.06783031894     Delta-E=        0.000009939768 Rises=F Damp=F
 DIIS: error= 7.27D-04 at cycle  39 NSaved=  11.
 NSaved=11 IEnMin=10 EnMin= -1299.06784025871     IErMin=10 ErrMin= 3.12D-04
 ErrMax= 7.27D-04  0.00D+00 EMaxC= 1.00D+00 BMatC= 3.57D-05 BMatP= 1.24D-05
 IDIUse=1 WtCom= 1.00D+00 WtEn= 0.00D+00
 Coeff-Com:  0.166D-04 0.633D-04 0.699D-04-0.854D-03 0.403D-02 0.244D-01
 Coeff-Com: -0.105D+00-0.447D-01 0.219D+00 0.637D+00 0.265D+00
 Coeff:      0.166D-04 0.633D-04 0.699D-04-0.854D-03 0.403D-02 0.244D-01
 Coeff:     -0.105D+00-0.447D-01 0.219D+00 0.637D+00 0.265D+00
 Gap=     0.163 Goal=   None    Shift=    0.000
 RMSDP=5.51D-05 MaxDP=1.39D-03 DE= 9.94D-06 OVMax= 1.27D-03

 Cycle  40  Pass 1  IDiag  1:
 E= -1299.06786154470     Delta-E=       -0.000031225758 Rises=F Damp=F
 DIIS: error= 4.47D-05 at cycle  40 NSaved=  12.
 NSaved=12 IEnMin=12 EnMin= -1299.06786154470     IErMin=12 ErrMin= 4.47D-05
 ErrMax= 4.47D-05  0.00D+00 EMaxC= 1.00D+00 BMatC= 3.30D-07 BMatP= 1.24D-05
 IDIUse=1 WtCom= 1.00D+00 WtEn= 0.00D+00
 Coeff-Com: -0.560D-05 0.148D-04 0.116D-03-0.687D-03-0.131D-02-0.241D-03
 Coeff-Com:  0.267D-01 0.189D-02-0.566D-01-0.547D-01 0.305D-01 0.105D+01
 Coeff:     -0.560D-05 0.148D-04 0.116D-03-0.687D-03-0.131D-02-0.241D-03
 Coeff:      0.267D-01 0.189D-02-0.566D-01-0.547D-01 0.305D-01 0.105D+01
 Gap=     0.163 Goal=   None    Shift=    0.000
 RMSDP=4.14D-05 MaxDP=2.03D-03 DE=-3.12D-05 OVMax= 2.69D-04

 Cycle  41  Pass 1  IDiag  1:
 E= -1299.06787148003     Delta-E=       -0.000009935331 Rises=F Damp=F
 DIIS: error= 3.85D-05 at cycle  41 NSaved=  13.
 NSaved=13 IEnMin=13 EnMin= -1299.06787148003     IErMin=13 ErrMin= 3.85D-05
 ErrMax= 3.85D-05  0.00D+00 EMaxC= 1.00D+00 BMatC= 1.79D-07 BMatP= 3.30D-07
 IDIUse=1 WtCom= 1.00D+00 WtEn= 0.00D+00
 Coeff-Com: -0.217D-05 0.562D-05 0.390D-04-0.194D-03-0.546D-03-0.584D-03
 Coeff-Com:  0.133D-01 0.319D-02-0.236D-01-0.384D-01 0.464D-02 0.416D+00
 Coeff-Com:  0.626D+00
 Coeff:     -0.217D-05 0.562D-05 0.390D-04-0.194D-03-0.546D-03-0.584D-03
 Coeff:      0.133D-01 0.319D-02-0.236D-01-0.384D-01 0.464D-02 0.416D+00
 Coeff:      0.626D+00
 Gap=     0.163 Goal=   None    Shift=    0.000
 RMSDP=2.57D-05 MaxDP=1.32D-03 DE=-9.94D-06 OVMax= 1.39D-04

 Cycle  42  Pass 1  IDiag  1:
 E= -1299.06787839559     Delta-E=       -0.000006915565 Rises=F Damp=F
 DIIS: error= 4.11D-05 at cycle  42 NSaved=  14.
 NSaved=14 IEnMin=14 EnMin= -1299.06787839559     IErMin=13 ErrMin= 3.85D-05
 ErrMax= 4.11D-05  0.00D+00 EMaxC= 1.00D+00 BMatC= 1.75D-07 BMatP= 1.79D-07
 IDIUse=1 WtCom= 1.00D+00 WtEn= 0.00D+00
 Coeff-Com: -0.506D-05 0.170D-05-0.209D-05 0.240D-03-0.116D-02-0.548D-02
 Coeff-Com:  0.384D-01 0.187D-01-0.522D-01-0.176D+00-0.451D-01 0.586D+00
 Coeff-Com:  0.563D+01-0.499D+01
 Coeff:     -0.506D-05 0.170D-05-0.209D-05 0.240D-03-0.116D-02-0.548D-02
 Coeff:      0.384D-01 0.187D-01-0.522D-01-0.176D+00-0.451D-01 0.586D+00
 Coeff:      0.563D+01-0.499D+01
 Gap=     0.163 Goal=   None    Shift=    0.000
 RMSDP=1.36D-04 MaxDP=7.06D-03 DE=-6.92D-06 OVMax= 7.43D-04

 Cycle  43  Pass 1  IDiag  1:
 E= -1299.06784723600     Delta-E=        0.000031159597 Rises=F Damp=F
 DIIS: error= 2.68D-05 at cycle  43 NSaved=  15.
 NSaved=15 IEnMin=14 EnMin= -1299.06787839559     IErMin=15 ErrMin= 2.68D-05
 ErrMax= 2.68D-05  0.00D+00 EMaxC= 1.00D+00 BMatC= 8.30D-08 BMatP= 1.75D-07
 IDIUse=1 WtCom= 1.00D+00 WtEn= 0.00D+00
 Coeff-Com:  0.237D-06-0.107D-05-0.389D-04 0.329D-03 0.262D-04-0.196D-02
 Coeff-Com:  0.722D-02 0.101D-01-0.224D-02-0.628D-01-0.341D-01-0.158D+00
 Coeff-Com:  0.303D+01-0.371D+01 0.192D+01
 Coeff:      0.237D-06-0.107D-05-0.389D-04 0.329D-03 0.262D-04-0.196D-02
 Coeff:      0.722D-02 0.101D-01-0.224D-02-0.628D-01-0.341D-01-0.158D+00
 Coeff:      0.303D+01-0.371D+01 0.192D+01
 Gap=     0.163 Goal=   None    Shift=    0.000
 RMSDP=1.83D-04 MaxDP=9.25D-03 DE= 3.12D-05 OVMax= 9.78D-04

 Cycle  44  Pass 1  IDiag  1:
 E= -1299.06783933829     Delta-E=        0.000007897703 Rises=F Damp=F
 DIIS: error= 6.35D-05 at cycle  44 NSaved=  16.
 NSaved=16 IEnMin=14 EnMin= -1299.06787839559     IErMin=15 ErrMin= 2.68D-05
 ErrMax= 6.35D-05  0.00D+00 EMaxC= 1.00D+00 BMatC= 2.04D-07 BMatP= 8.30D-08
 IDIUse=1 WtCom= 1.00D+00 WtEn= 0.00D+00
 Coeff-Com:  0.146D-05-0.143D-05-0.567D-04 0.439D-03 0.195D-03-0.195D-02
 Coeff-Com:  0.459D-02 0.120D-01 0.519D-02-0.641D-01-0.429D-01-0.319D+00
 Coeff-Com:  0.360D+01-0.466D+01 0.278D+01-0.314D+00
 Coeff:      0.146D-05-0.143D-05-0.567D-04 0.439D-03 0.195D-03-0.195D-02
 Coeff:      0.459D-02 0.120D-01 0.519D-02-0.641D-01-0.429D-01-0.319D+00
 Coeff:      0.360D+01-0.466D+01 0.278D+01-0.314D+00
 Gap=     0.163 Goal=   None    Shift=    0.000
 RMSDP=4.19D-05 MaxDP=1.28D-03 DE= 7.90D-06 OVMax= 1.61D-04

 Cycle  45  Pass 1  IDiag  1:
 E= -1299.06782598328     Delta-E=        0.000013355014 Rises=F Damp=F
 DIIS: error= 1.90D-05 at cycle  45 NSaved=  17.
 NSaved=17 IEnMin=14 EnMin= -1299.06787839559     IErMin=17 ErrMin= 1.90D-05
 ErrMax= 1.90D-05  0.00D+00 EMaxC= 1.00D+00 BMatC= 3.29D-08 BMatP= 8.30D-08
 IDIUse=1 WtCom= 1.00D+00 WtEn= 0.00D+00
 Coeff-Com: -0.626D-06-0.300D-05-0.254D-04 0.240D-03 0.261D-03-0.114D-02
 Coeff-Com:  0.192D-03 0.363D-02 0.352D-02-0.226D-01-0.180D-01-0.186D+00
 Coeff-Com:  0.109D+01-0.168D+01 0.129D+01-0.464D+00 0.981D+00
 Coeff:     -0.626D-06-0.300D-05-0.254D-04 0.240D-03 0.261D-03-0.114D-02
 Coeff:      0.192D-03 0.363D-02 0.352D-02-0.226D-01-0.180D-01-0.186D+00
 Coeff:      0.109D+01-0.168D+01 0.129D+01-0.464D+00 0.981D+00
 Gap=     0.163 Goal=   None    Shift=    0.000
 RMSDP=3.70D-05 MaxDP=1.81D-03 DE= 1.34D-05 OVMax= 1.95D-04

 Cycle  46  Pass 1  IDiag  1:
 E= -1299.06782396360     Delta-E=        0.000002019678 Rises=F Damp=F
 DIIS: error= 8.59D-06 at cycle  46 NSaved=  18.
 NSaved=18 IEnMin=14 EnMin= -1299.06787839559     IErMin=18 ErrMin= 8.59D-06
 ErrMax= 8.59D-06  0.00D+00 EMaxC= 1.00D+00 BMatC= 4.39D-09 BMatP= 3.29D-08
 IDIUse=1 WtCom= 1.00D+00 WtEn= 0.00D+00
 Coeff-Com: -0.198D-05-0.280D-07-0.907D-05-0.760D-04-0.159D-03 0.438D-03
 Coeff-Com:  0.244D-02 0.880D-03-0.474D-02-0.752D-02 0.598D-04 0.613D-01
 Coeff-Com:  0.473D+00-0.436D+00-0.481D-01 0.256D+00-0.108D+01 0.178D+01
 Coeff:     -0.198D-05-0.280D-07-0.907D-05-0.760D-04-0.159D-03 0.438D-03
 Coeff:      0.244D-02 0.880D-03-0.474D-02-0.752D-02 0.598D-04 0.613D-01
 Coeff:      0.473D+00-0.436D+00-0.481D-01 0.256D+00-0.108D+01 0.178D+01
 Gap=     0.163 Goal=   None    Shift=    0.000
 RMSDP=1.58D-05 MaxDP=8.06D-04 DE= 2.02D-06 OVMax= 9.33D-05

 Cycle  47  Pass 1  IDiag  1:
 E= -1299.06782384699     Delta-E=        0.000000116611 Rises=F Damp=F
 DIIS: error= 3.67D-06 at cycle  47 NSaved=  19.
 NSaved=19 IEnMin=14 EnMin= -1299.06787839559     IErMin=19 ErrMin= 3.67D-06
 ErrMax= 3.67D-06  0.00D+00 EMaxC= 1.00D+00 BMatC= 6.47D-10 BMatP= 4.39D-09
 IDIUse=1 WtCom= 1.00D+00 WtEn= 0.00D+00
 Coeff-Com: -0.212D-06 0.993D-06-0.799D-05-0.465D-04 0.124D-04 0.385D-03
 Coeff-Com:  0.940D-04 0.149D-03-0.622D-03 0.377D-03 0.183D-02 0.164D-01
 Coeff-Com:  0.105D+00-0.987D-01-0.124D-01 0.728D-01-0.298D+00 0.358D+00
 Coeff-Com:  0.854D+00
 Coeff:     -0.212D-06 0.993D-06-0.799D-05-0.465D-04 0.124D-04 0.385D-03
 Coeff:      0.940D-04 0.149D-03-0.622D-03 0.377D-03 0.183D-02 0.164D-01
 Coeff:      0.105D+00-0.987D-01-0.124D-01 0.728D-01-0.298D+00 0.358D+00
 Coeff:      0.854D+00
 Gap=     0.163 Goal=   None    Shift=    0.000
 RMSDP=1.94D-06 MaxDP=6.47D-05 DE= 1.17D-07 OVMax= 5.35D-05

 Cycle  48  Pass 1  IDiag  1:
 E= -1299.06782384659     Delta-E=        0.000000000401 Rises=F Damp=F
 DIIS: error= 2.19D-06 at cycle  48 NSaved=  20.
 NSaved=20 IEnMin=14 EnMin= -1299.06787839559     IErMin=20 ErrMin= 2.19D-06
 ErrMax= 2.19D-06  0.00D+00 EMaxC= 1.00D+00 BMatC= 3.08D-10 BMatP= 6.47D-10
 IDIUse=1 WtCom= 1.00D+00 WtEn= 0.00D+00
 Coeff-Com:  0.424D-06 0.831D-06-0.450D-05-0.139D-04 0.683D-04 0.168D-03
 Coeff-Com: -0.720D-03-0.154D-03 0.110D-02 0.243D-02 0.172D-02-0.856D-02
 Coeff-Com: -0.634D-01 0.488D-01 0.190D-01-0.330D-01 0.132D+00-0.258D+00
 Coeff-Com:  0.456D+00 0.702D+00
 Coeff:      0.424D-06 0.831D-06-0.450D-05-0.139D-04 0.683D-04 0.168D-03
 Coeff:     -0.720D-03-0.154D-03 0.110D-02 0.243D-02 0.172D-02-0.856D-02
 Coeff:     -0.634D-01 0.488D-01 0.190D-01-0.330D-01 0.132D+00-0.258D+00
 Coeff:      0.456D+00 0.702D+00
 Gap=     0.163 Goal=   None    Shift=    0.000
 RMSDP=7.80D-07 MaxDP=3.22D-05 DE= 4.01D-10 OVMax= 2.65D-05

 Cycle  49  Pass 1  IDiag  1:
 E= -1299.06782384697     Delta-E=       -0.000000000381 Rises=F Damp=F
 DIIS: error= 9.54D-07 at cycle  49 NSaved=  20.
 NSaved=20 IEnMin=13 EnMin= -1299.06787839559     IErMin=20 ErrMin= 9.54D-07
 ErrMax= 9.54D-07  0.00D+00 EMaxC= 1.00D+00 BMatC= 7.22D-11 BMatP= 3.08D-10
 IDIUse=1 WtCom= 1.00D+00 WtEn= 0.00D+00
 Coeff-Com:  0.595D-07-0.424D-06-0.397D-05 0.774D-05 0.209D-04-0.135D-03
 Coeff-Com: -0.547D-04 0.308D-03 0.317D-03 0.125D-02-0.307D-02-0.256D-01
 Coeff-Com:  0.240D-01-0.136D-03-0.111D-01 0.476D-01-0.752D-01 0.528D-02
 Coeff-Com:  0.104D+00 0.932D+00
 Coeff:      0.595D-07-0.424D-06-0.397D-05 0.774D-05 0.209D-04-0.135D-03
 Coeff:     -0.547D-04 0.308D-03 0.317D-03 0.125D-02-0.307D-02-0.256D-01
 Coeff:      0.240D-01-0.136D-03-0.111D-01 0.476D-01-0.752D-01 0.528D-02
 Coeff:      0.104D+00 0.932D+00
 Gap=     0.163 Goal=   None    Shift=    0.000
 RMSDP=1.67D-07 MaxDP=4.98D-06 DE=-3.81D-10 OVMax= 3.24D-06

 Cycle  50  Pass 1  IDiag  1:
 E= -1299.06782384699     Delta-E=       -0.000000000018 Rises=F Damp=F
 DIIS: error= 1.21D-06 at cycle  50 NSaved=  20.
 NSaved=20 IEnMin=12 EnMin= -1299.06787839559     IErMin=19 ErrMin= 9.54D-07
 ErrMax= 1.21D-06  0.00D+00 EMaxC= 1.00D+00 BMatC= 9.15D-11 BMatP= 7.22D-11
 IDIUse=1 WtCom= 1.00D+00 WtEn= 0.00D+00
 Coeff-Com:  0.225D-06-0.877D-06-0.407D-05-0.266D-05 0.231D-04-0.136D-04
 Coeff-Com: -0.140D-04-0.351D-03 0.139D-02-0.812D-03 0.952D-03-0.550D-03
 Coeff-Com: -0.109D-02 0.352D-03-0.100D-02 0.714D-02-0.462D-01-0.499D-01
 Coeff-Com:  0.218D+00 0.872D+00
 Coeff:      0.225D-06-0.877D-06-0.407D-05-0.266D-05 0.231D-04-0.136D-04
 Coeff:     -0.140D-04-0.351D-03 0.139D-02-0.812D-03 0.952D-03-0.550D-03
 Coeff:     -0.109D-02 0.352D-03-0.100D-02 0.714D-02-0.462D-01-0.499D-01
 Coeff:      0.218D+00 0.872D+00
 Gap=     0.163 Goal=   None    Shift=    0.000
 RMSDP=8.69D-08 MaxDP=1.75D-06 DE=-1.77D-11 OVMax= 2.15D-06

 Cycle  51  Pass 1  IDiag  1:
 E= -1299.06782384700     Delta-E=       -0.000000000008 Rises=F Damp=F
 DIIS: error= 1.52D-06 at cycle  51 NSaved=  20.
 NSaved=20 IEnMin=11 EnMin= -1299.06787839559     IErMin=18 ErrMin= 9.54D-07
 ErrMax= 1.52D-06  0.00D+00 EMaxC= 1.00D+00 BMatC= 1.42D-10 BMatP= 7.22D-11
 IDIUse=1 WtCom= 1.00D+00 WtEn= 0.00D+00
 Coeff-Com: -0.220D-06-0.137D-05-0.108D-05 0.976D-05-0.818D-05 0.445D-05
 Coeff-Com: -0.375D-03 0.155D-02-0.124D-02 0.148D-02-0.122D-02-0.297D-03
 Coeff-Com:  0.373D-03-0.143D-02 0.488D-02-0.241D-01-0.284D-01 0.107D+00
 Coeff-Com:  0.488D+00 0.454D+00
 Coeff:     -0.220D-06-0.137D-05-0.108D-05 0.976D-05-0.818D-05 0.445D-05
 Coeff:     -0.375D-03 0.155D-02-0.124D-02 0.148D-02-0.122D-02-0.297D-03
 Coeff:      0.373D-03-0.143D-02 0.488D-02-0.241D-01-0.284D-01 0.107D+00
 Coeff:      0.488D+00 0.454D+00
 Gap=     0.163 Goal=   None    Shift=    0.000
 RMSDP=4.31D-08 MaxDP=1.03D-06 DE=-8.41D-12 OVMax= 1.19D-06

 Cycle  52  Pass 1  IDiag  1:
 E= -1299.06782384700     Delta-E=       -0.000000000002 Rises=F Damp=F
 DIIS: error= 1.69D-06 at cycle  52 NSaved=  20.
 NSaved=20 IEnMin=10 EnMin= -1299.06787839559     IErMin=17 ErrMin= 9.54D-07
 ErrMax= 1.69D-06  0.00D+00 EMaxC= 1.00D+00 BMatC= 1.77D-10 BMatP= 7.22D-11
 IDIUse=1 WtCom= 1.00D+00 WtEn= 0.00D+00
 Large coefficients: NSaved= 20 BigCof=    0.00 CofMax=   10.00 Det=-6.16D-15
 Inversion failed.  Reducing to 19 matrices.
 Large coefficients: NSaved= 19 BigCof=    0.00 CofMax=   10.00 Det=-6.24D-15
 Inversion failed.  Reducing to 18 matrices.
 Large coefficients: NSaved= 18 BigCof=    0.00 CofMax=   10.00 Det=-6.68D-15
 Inversion failed.  Reducing to 17 matrices.
 Large coefficients: NSaved= 17 BigCof=    0.00 CofMax=   10.00 Det=-8.29D-15
 Inversion failed.  Reducing to 16 matrices.
 Large coefficients: NSaved= 16 BigCof=    0.00 CofMax=   10.00 Det=-8.43D-15
 Inversion failed.  Reducing to 15 matrices.
 Coeff-Com: -0.172D-03 0.715D-03-0.780D-03 0.433D-02-0.507D-02 0.188D-02
 Coeff-Com:  0.472D-03-0.327D-02 0.681D-02-0.116D-01-0.218D-01-0.286D-01
 Coeff-Com:  0.327D+00 0.537D+01-0.464D+01
 Coeff:     -0.172D-03 0.715D-03-0.780D-03 0.433D-02-0.507D-02 0.188D-02
 Coeff:      0.472D-03-0.327D-02 0.681D-02-0.116D-01-0.218D-01-0.286D-01
 Coeff:      0.327D+00 0.537D+01-0.464D+01
 Gap=     0.163 Goal=   None    Shift=    0.000
 RMSDP=2.16D-07 MaxDP=5.49D-06 DE=-2.05D-12 OVMax= 6.05D-06

 Cycle  53  Pass 1  IDiag  1:
 E= -1299.06782384698     Delta-E=        0.000000000023 Rises=F Damp=F
 DIIS: error= 7.95D-07 at cycle  53 NSaved=  16.
 NSaved=16 IEnMin= 5 EnMin= -1299.06787839559     IErMin=16 ErrMin= 7.95D-07
 ErrMax= 7.95D-07  0.00D+00 EMaxC= 1.00D+00 BMatC= 3.80D-11 BMatP= 7.22D-11
 IDIUse=1 WtCom= 1.00D+00 WtEn= 0.00D+00
 Large coefficients: NSaved= 16 BigCof=    0.00 CofMax=   10.00 Det=-4.00D-15
 Inversion failed.  Reducing to 15 matrices.
 Coeff-Com: -0.441D-04 0.233D-03-0.373D-03 0.107D-03 0.647D-03-0.704D-03
 Coeff-Com:  0.120D-02-0.402D-02 0.213D-02 0.466D-02-0.446D-01-0.169D+00
 Coeff-Com: -0.101D+00-0.467D+00 0.178D+01
 Coeff:     -0.441D-04 0.233D-03-0.373D-03 0.107D-03 0.647D-03-0.704D-03
 Coeff:      0.120D-02-0.402D-02 0.213D-02 0.466D-02-0.446D-01-0.169D+00
 Coeff:     -0.101D+00-0.467D+00 0.178D+01
 Gap=     0.163 Goal=   None    Shift=    0.000
 RMSDP=1.42D-07 MaxDP=4.82D-06 DE= 2.30D-11 OVMax= 3.53D-06

 Cycle  54  Pass 1  IDiag  1:
 E= -1299.06782384700     Delta-E=       -0.000000000028 Rises=F Damp=F
 DIIS: error= 3.38D-07 at cycle  54 NSaved=  16.
 NSaved=16 IEnMin= 5 EnMin= -1299.06787839559     IErMin=16 ErrMin= 3.38D-07
 ErrMax= 3.38D-07  0.00D+00 EMaxC= 1.00D+00 BMatC= 4.43D-12 BMatP= 3.80D-11
 IDIUse=1 WtCom= 1.00D+00 WtEn= 0.00D+00
 Large coefficients: NSaved= 16 BigCof=    0.00 CofMax=   10.00 Det=-4.68D-15
 Inversion failed.  Reducing to 15 matrices.
 Coeff-Com: -0.323D-04 0.182D-03-0.388D-03-0.678D-03 0.144D-02-0.743D-03
 Coeff-Com:  0.105D-02-0.321D-02 0.543D-03 0.195D-02-0.147D+00-0.418D+00
 Coeff-Com: -0.347D+00 0.203D+01-0.118D+00
 Coeff:     -0.323D-04 0.182D-03-0.388D-03-0.678D-03 0.144D-02-0.743D-03
 Coeff:      0.105D-02-0.321D-02 0.543D-03 0.195D-02-0.147D+00-0.418D+00
 Coeff:     -0.347D+00 0.203D+01-0.118D+00
 Gap=     0.163 Goal=   None    Shift=    0.000
 RMSDP=2.52D-08 MaxDP=9.23D-07 DE=-2.77D-11 OVMax= 3.63D-07

 Cycle  55  Pass 1  IDiag  1:
 E= -1299.06782384699     Delta-E=        0.000000000014 Rises=F Damp=F
 DIIS: error= 2.61D-07 at cycle  55 NSaved=  16.
 NSaved=16 IEnMin= 5 EnMin= -1299.06787839559     IErMin=16 ErrMin= 2.61D-07
 ErrMax= 2.61D-07  0.00D+00 EMaxC= 1.00D+00 BMatC= 2.77D-12 BMatP= 4.43D-12
 IDIUse=1 WtCom= 1.00D+00 WtEn= 0.00D+00
 Large coefficients: NSaved= 16 BigCof=    0.00 CofMax=   10.00 Det=-3.67D-15
 Inversion failed.  Reducing to 15 matrices.
 Coeff-Com: -0.670D-04 0.401D-03 0.109D-03 0.142D-03-0.290D-05-0.901D-03
 Coeff-Com: -0.891D-04 0.687D-03-0.183D-03 0.550D-03-0.112D+00-0.885D+00
 Coeff-Com:  0.100D+01-0.196D+01 0.295D+01
 Coeff:     -0.670D-04 0.401D-03 0.109D-03 0.142D-03-0.290D-05-0.901D-03
 Coeff:     -0.891D-04 0.687D-03-0.183D-03 0.550D-03-0.112D+00-0.885D+00
 Coeff:      0.100D+01-0.196D+01 0.295D+01
 Gap=     0.163 Goal=   None    Shift=    0.000
 RMSDP=5.94D-08 MaxDP=1.68D-06 DE= 1.41D-11 OVMax= 1.36D-06

 Cycle  56  Pass 1  IDiag  1:
 E= -1299.06782384698     Delta-E=        0.000000000007 Rises=F Damp=F
 DIIS: error= 4.47D-07 at cycle  56 NSaved=  16.
 NSaved=16 IEnMin= 5 EnMin= -1299.06787839559     IErMin=15 ErrMin= 2.61D-07
 ErrMax= 4.47D-07  0.00D+00 EMaxC= 1.00D+00 BMatC= 1.05D-11 BMatP= 2.77D-12
 IDIUse=1 WtCom= 1.00D+00 WtEn= 0.00D+00
 Large coefficients: NSaved= 16 BigCof=    0.00 CofMax=   10.00 Det=-4.42D-15
 Inversion failed.  Reducing to 15 matrices.
 Coeff-Com:  0.130D-05-0.856D-05 0.596D-05 0.103D-03-0.309D-03 0.264D-03
 Coeff-Com: -0.116D-03 0.204D-03 0.445D-03-0.572D-04-0.481D+00 0.252D+00
 Coeff-Com: -0.233D+01 0.274D+01 0.825D+00
 Coeff:      0.130D-05-0.856D-05 0.596D-05 0.103D-03-0.309D-03 0.264D-03
 Coeff:     -0.116D-03 0.204D-03 0.445D-03-0.572D-04-0.481D+00 0.252D+00
 Coeff:     -0.233D+01 0.274D+01 0.825D+00
 Gap=     0.163 Goal=   None    Shift=    0.000
 RMSDP=1.05D-07 MaxDP=3.29D-06 DE= 6.82D-12 OVMax= 2.75D-06

 Cycle  57  Pass 1  IDiag  1:
 E= -1299.06782384697     Delta-E=        0.000000000016 Rises=F Damp=F
 DIIS: error= 1.09D-08 at cycle  57 NSaved=  16.
 NSaved=16 IEnMin= 5 EnMin= -1299.06787839559     IErMin=16 ErrMin= 1.09D-08
 ErrMax= 1.09D-08  0.00D+00 EMaxC= 1.00D+00 BMatC= 1.06D-14 BMatP= 2.77D-12
 IDIUse=1 WtCom= 1.00D+00 WtEn= 0.00D+00
 Large coefficients: NSaved= 16 BigCof=    0.00 CofMax=   10.00 Det=-1.59D-15
 Inversion failed.  Reducing to 15 matrices.
 Coeff-Com: -0.193D-05 0.368D-05 0.821D-04-0.166D-03 0.342D-03-0.387D-03
 Coeff-Com:  0.207D-03-0.548D-03 0.337D-03-0.516D-04-0.637D+00 0.583D+00
 Coeff-Com: -0.250D-01-0.160D-01 0.110D+01
 Coeff:     -0.193D-05 0.368D-05 0.821D-04-0.166D-03 0.342D-03-0.387D-03
 Coeff:      0.207D-03-0.548D-03 0.337D-03-0.516D-04-0.637D+00 0.583D+00
 Coeff:     -0.250D-01-0.160D-01 0.110D+01
 Gap=     0.163 Goal=   None    Shift=    0.000
 RMSDP=1.21D-08 MaxDP=5.36D-07 DE= 1.57D-11 OVMax= 1.74D-07

 Cycle  58  Pass 1  IDiag  1:
 E= -1299.06782384697     Delta-E=       -0.000000000005 Rises=F Damp=F
 DIIS: error= 3.32D-09 at cycle  58 NSaved=  16.
 NSaved=16 IEnMin= 5 EnMin= -1299.06787839559     IErMin=16 ErrMin= 3.32D-09
 ErrMax= 3.32D-09  0.00D+00 EMaxC= 1.00D+00 BMatC= 1.07D-15 BMatP= 1.06D-14
 IDIUse=1 WtCom= 1.00D+00 WtEn= 0.00D+00
 Large coefficients: NSaved= 16 BigCof=    0.00 CofMax=   10.00 Det=-2.13D-15
 Inversion failed.  Reducing to 15 matrices.
 Coeff-Com: -0.937D-06-0.763D-05 0.890D-05-0.222D-04-0.896D-05 0.309D-04
 Coeff-Com: -0.217D-04 0.536D-04 0.287D-04 0.260D-03-0.226D-01 0.190D-01
 Coeff-Com: -0.176D-01 0.142D+00 0.879D+00
 Coeff:     -0.937D-06-0.763D-05 0.890D-05-0.222D-04-0.896D-05 0.309D-04
 Coeff:     -0.217D-04 0.536D-04 0.287D-04 0.260D-03-0.226D-01 0.190D-01
 Coeff:     -0.176D-01 0.142D+00 0.879D+00
 Gap=     0.163 Goal=   None    Shift=    0.000
 RMSDP=2.99D-09 MaxDP=8.46D-08 DE=-5.23D-12 OVMax= 6.51D-08

 SCF Done:  E(ROHF) =  -1299.06782385     A.U. after   58 cycles
            NFock= 58  Conv=0.30D-08     -V/T= 2.0004
 <Sx>= 0.0000 <Sy>= 0.0000 <Sz>= 1.5000 <S**2>= 3.7500 S= 1.5000
 <L.S>= 0.000000000000E+00
 KE= 1.298525443128D+03 PE=-3.338607372367D+03 EE= 6.168081410613D+02
 Annihilation of the first spin contaminant:
 S**2 before annihilation     3.7500,   after     3.7500
 Leave Link  502 at Tue Sep 22 13:39:40 2015, MaxMem=    33554432 cpu:               4.6 elap:               4.6
 (Enter /home/gauss/gdvi01p/gdv/l601.exe)
 Copying SCF densities to generalized density rwf, IOpCl= 0 IROHF=1.

 **********************************************************************

            Population analysis using the SCF density.

 **********************************************************************

 Alpha  occ. eigenvalues -- -240.59069 -29.15811 -24.88936 -24.85049 -24.85049
 Alpha  occ. eigenvalues --  -20.62542 -20.62541  -3.82190  -2.49760  -2.48127
 Alpha  occ. eigenvalues --   -2.48127  -1.23098  -1.21596  -0.59053  -0.53365
 Alpha  occ. eigenvalues --   -0.46046  -0.46046  -0.38004  -0.38004  -0.22090
 Alpha  occ. eigenvalues --   -0.22090  -0.11668
 Alpha virt. eigenvalues --    0.04651   0.06899   0.06899   0.11602   0.16889
 Alpha virt. eigenvalues --    0.16889   0.23076   0.23637   0.23637   0.25771
 Alpha virt. eigenvalues --    0.25771   0.34303   0.34303   0.38442   0.40406
 Alpha virt. eigenvalues --    0.81083   0.81083   0.89869   0.92283   1.26310
 Alpha virt. eigenvalues --    1.26310   1.31342   1.36632   1.40796   1.40796
 Alpha virt. eigenvalues --    1.45209   1.45209   1.50484   1.50484   1.75649
 Alpha virt. eigenvalues --    2.06110   2.30222   2.57996   2.57996   2.69709
 Alpha virt. eigenvalues --    2.78747   2.78747   2.83645   2.83645   2.91476
 Alpha virt. eigenvalues --    2.91476   2.97900   2.97900   3.06608   3.06608
 Alpha virt. eigenvalues --    3.35188   3.35188   3.66740   4.06829
          Condensed to atoms (all electrons):
               1          2          3
     1  Mn  23.552120   0.316601   0.316601
     2  O    0.316601   8.091589  -0.000851
     3  O    0.316601  -0.000851   8.091589
          Atomic-Atomic Spin Densities.
               1          2          3
     1  Mn   1.010041   0.015666   0.015666
     2  O    0.015666   0.963161   0.000486
     3  O    0.015666   0.000486   0.963162
 Mulliken charges and spin densities:
               1          2
     1  Mn   0.814678   1.041373
     2  O   -0.407339   0.979313
     3  O   -0.407339   0.979314
 Sum of Mulliken charges =   0.00000   3.00000
 Mulliken charges and spin densities with hydrogens summed into heavy atoms:
               1          2
     1  Mn   0.814678   1.041373
     2  O   -0.407339   0.979313
     3  O   -0.407339   0.979314
 Electronic spatial extent (au):  <R**2>=            256.4477
 Charge=              0.0000 electrons
 Dipole moment (field-independent basis, Debye):
    X=              0.0000    Y=              0.0000    Z=              0.0000  Tot=              0.0000
 Quadrupole moment (field-independent basis, Debye-Ang):
   XX=            -23.0278   YY=            -23.0278   ZZ=            -38.5383
   XY=              0.0000   XZ=              0.0000   YZ=              0.0000
 Traceless Quadrupole moment (field-independent basis, Debye-Ang):
   XX=              5.1702   YY=              5.1702   ZZ=            -10.3404
   XY=              0.0000   XZ=              0.0000   YZ=              0.0000
 Octapole moment (field-independent basis, Debye-Ang**2):
  XXX=              0.0000  YYY=              0.0000  ZZZ=              0.0000  XYY=              0.0000
  XXY=              0.0000  XXZ=              0.0000  XZZ=              0.0000  YZZ=              0.0000
  YYZ=              0.0000  XYZ=              0.0000
 Hexadecapole moment (field-independent basis, Debye-Ang**3):
 XXXX=            -20.3867 YYYY=            -20.3867 ZZZZ=           -318.7592 XXXY=              0.0000
 XXXZ=              0.0000 YYYX=              0.0000 YYYZ=              0.0000 ZZZX=              0.0000
 ZZZY=              0.0000 XXYY=             -6.7956 XXZZ=            -46.5544 YYZZ=            -46.5544
 XXYZ=              0.0000 YYXZ=              0.0000 ZZXY=              0.0000
 N-N= 1.242059643306D+02 E-N=-3.338607372196D+03  KE= 1.298525443128D+03
                          Isotropic Fermi Contact Couplings
        Atom                 a.u.       MegaHertz       Gauss      10(-4) cm-1
     1  Mn(55)             0.70772     260.76110      93.04605      86.98054
     2  O(17)              0.01261      -2.54829      -0.90929      -0.85002
     3  O(17)              0.01261      -2.54829      -0.90929      -0.85002
 --------------------------------------------------------
       Center         ----  Spin Dipole Couplings  ----
                      3XX-RR        3YY-RR        3ZZ-RR
 --------------------------------------------------------
     1   Atom       -1.051571     -1.051571      2.103142
     2   Atom        0.764205      0.764205     -1.528410
     3   Atom        0.764205      0.764205     -1.528410
 --------------------------------------------------------
                        XY            XZ            YZ
 --------------------------------------------------------
     1   Atom       -0.000001      0.000000      0.000000
     2   Atom        0.000000      0.000000      0.000000
     3   Atom        0.000000      0.000000      0.000000
 --------------------------------------------------------


 ---------------------------------------------------------------------------------
              Anisotropic Spin Dipole Couplings in Principal Axis System
 ---------------------------------------------------------------------------------

       Atom             a.u.   MegaHertz   Gauss  10(-4) cm-1        Axes

              Baa    -1.0516  -138.746   -49.508   -46.281  0.5654  0.8248  0.0000
     1 Mn(55) Bbb    -1.0516  -138.746   -49.508   -46.281  0.8248 -0.5654  0.0000
              Bcc     2.1031   277.492    99.016    92.561  0.0000  0.0000  1.0000
 
              Baa    -1.5284   110.595    39.463    36.890  0.0000  0.0000  1.0000
     2 O(17)  Bbb     0.7642   -55.297   -19.731   -18.445  0.9819  0.1895  0.0000
              Bcc     0.7642   -55.297   -19.731   -18.445 -0.1895  0.9819  0.0000
 
              Baa    -1.5284   110.595    39.463    36.890  0.0000  0.0000  1.0000
     3 O(17)  Bbb     0.7642   -55.297   -19.731   -18.445 -0.2311  0.9729  0.0000
              Bcc     0.7642   -55.297   -19.731   -18.445  0.9729  0.2311  0.0000
 

 ---------------------------------------------------------------------------------

 No NMR shielding tensors so no spin-rotation constants.
 Leave Link  601 at Tue Sep 22 13:39:40 2015, MaxMem=    33554432 cpu:               0.3 elap:               0.3
 (Enter /home/gauss/gdvi01p/gdv/l9999.exe)
 Unable to Open any file for archive entry.
 1\1\GINC-MEDUSA\SP\ROHF\CC-pVDZ\Mn1O2(4)\DBWY\22-Sep-2015\0\\#p rohf/c
 c-pVDZ nosymm\\MnO2 cc-pVDZ\\0,4\Mn,0,0.,0.,0.\O,0,0.,0.,1.840528\O,0,
 0.,0.,-1.840528\\Version=ES64L-GDVRevI.01+\HF=-1299.0678238\RMSD=2.993
 e-09\Dipole=0.,0.,-0.0000013\Quadrupole=3.8438995,3.8438992,-7.6877987
 ,-0.0000004,0.,0.\PG=D*H [O(Mn1),C*(O1.O1)]\\@
 The archive entry for this job was punched.


 AN AIRPLANE IS A COLLECTION OF SPARE PARTS
 FLYING IN CLOSE FORMATION.
 Job cpu time:       0 days  0 hours  0 minutes  5.9 seconds.
 Elapsed time:       0 days  0 hours  0 minutes  5.7 seconds.
 File lengths (MBytes):  RWF=      5 Int=      0 D2E=      0 Chk=      1 Scr=      1
 Normal termination of Gaussian DV at Tue Sep 22 13:39:40 2015.
