 Entering Gaussian System, Link 0=gdv
 Input=MnO2_6-31G_CIS.com
 Output=MnO2_6-31G_CIS.log
 Initial command:
 /home/gauss/gdvi03p/gdv/l1.exe "/home/GauScr/Gau-21146.inp" -scrdir="/home/GauScr/"
 Entering Link 1 = /home/gauss/gdvi03p/gdv/l1.exe PID=     21147.
  
 Copyright (c) 1988,1990,1992,1993,1995,1998,2003,2009,2015,
            Gaussian, Inc.  All Rights Reserved.
  
 This is the private, development version of
 the Gaussian(R) DV system of programs. It is based on
 the Gaussian(R) 09 system (copyright 2009, Gaussian, Inc.),
 the Gaussian(R) 03 system (copyright 2003, Gaussian, Inc.),
 the Gaussian(R) 98 system (copyright 1998, Gaussian, Inc.),
 the Gaussian(R) 94 system (copyright 1995, Gaussian, Inc.),
 the Gaussian 92(TM) system (copyright 1992, Gaussian, Inc.),
 the Gaussian 90(TM) system (copyright 1990, Gaussian, Inc.),
 the Gaussian 88(TM) system (copyright 1988, Gaussian, Inc.),
 the Gaussian 86(TM) system (copyright 1986, Carnegie Mellon
 University), and the Gaussian 82(TM) system (copyright 1983,
 Carnegie Mellon University). Gaussian is a federally registered
 trademark of Gaussian, Inc.
  
 This software contains proprietary and confidential information,
 including trade secrets, belonging to Gaussian, Inc.
  
 This software is provided under written license and may be
 used, copied, transmitted, or stored only in accord with that
 written license.
  
 The following legend is applicable only to US Government
 contracts under FAR:
  
                    RESTRICTED RIGHTS LEGEND
  
 Use, reproduction and disclosure by the US Government is
 subject to restrictions as set forth in subparagraphs (a)
 and (c) of the Commercial Computer Software - Restricted
 Rights clause in FAR 52.227-19.
  
 Gaussian, Inc.
 340 Quinnipiac St., Bldg. 40, Wallingford CT 06492
  
  
 ---------------------------------------------------------------
 Warning -- This program may not be used in any manner that
 competes with the business of Gaussian, Inc. or will provide
 assistance to any competitor of Gaussian, Inc.  The licensee
 of this program is prohibited from giving any competitor of
 Gaussian, Inc. access to this program.  By using this program,
 the user acknowledges that Gaussian, Inc. is engaged in the
 business of creating and licensing software in the field of
 computational chemistry and represents and warrants to the
 licensee that it is not a competitor of Gaussian, Inc. and that
 it will not use this program in any manner prohibited above.
 ---------------------------------------------------------------
  

 Cite this work as:
 Gaussian Development Version, Revision I.03+,
 M. J. Frisch, G. W. Trucks, H. B. Schlegel, G. E. Scuseria, 
 M. A. Robb, J. R. Cheeseman, G. Scalmani, V. Barone, B. Mennucci, 
 G. A. Petersson, H. Nakatsuji, M. Caricato, X. Li, H. P. Hratchian, 
 J. Bloino, B. G. Janesko, A. F. Izmaylov, A. Marenich, F. Lipparini, 
 G. Zheng, J. L. Sonnenberg, W. Liang, M. Hada, M. Ehara, K. Toyota, 
 R. Fukuda, J. Hasegawa, M. Ishida, T. Nakajima, Y. Honda, O. Kitao, 
 H. Nakai, T. Vreven, K. Throssell, J. A. Montgomery, Jr., 
 J. E. Peralta, F. Ogliaro, M. Bearpark, J. J. Heyd, E. Brothers, 
 K. N. Kudin, V. N. Staroverov, T. Keith, R. Kobayashi, J. Normand, 
 K. Raghavachari, A. Rendell, J. C. Burant, S. S. Iyengar, J. Tomasi, 
 M. Cossi, N. Rega, J. M. Millam, M. Klene, J. E. Knox, J. B. Cross, 
 V. Bakken, C. Adamo, J. Jaramillo, R. Gomperts, R. E. Stratmann, 
 O. Yazyev, A. J. Austin, R. Cammi, C. Pomelli, J. W. Ochterski, 
 R. L. Martin, K. Morokuma, V. G. Zakrzewski, G. A. Voth, 
 P. Salvador, J. J. Dannenberg, S. Dapprich, P. V. Parandekar, 
 N. J. Mayhall, A. D. Daniels, O. Farkas, J. B. Foresman, 
 J. V. Ortiz, J. Cioslowski, and D. J. Fox, 
 Gaussian, Inc., Wallingford CT, 2014.
 
 *******************************************
 Gaussian DV:  ES64L-GDVRevI.03+  2-May-2015
                 28-Oct-2015 
 *******************************************
 ----------------------------------------
 #p uhf/6-31G nosymm cis(full,nstates=12)
 ----------------------------------------
 1/38=1,172=1/1;
 2/12=2,15=1,17=6,18=5,40=1/2;
 3/5=1,6=6,11=2,25=1,30=1,116=2/1,2,3,8;
 4//1;
 5/5=2,38=5/2;
 8/6=1,10=90,108=12/1,4;
 9/41=12,42=3/14;
 6/7=2,8=2,9=2,10=2/1;
 99/5=1,9=1/99;
 Leave Link    1 at Wed Oct 28 10:10:41 2015, MaxMem=           0 cpu:               0.0 elap:               0.0
 (Enter /home/gauss/gdvi03p/gdv/l101.exe)
 ----------
 MnO2 6-31G
 ----------
 Symbolic Z-matrix:
 Charge =  0 Multiplicity = 4
 Mn                    0.        0.        0. 
 O                     0.        0.        1.84053 
 O                     0.        0.       -1.84053 
 
 ITRead=  0  0  0
 MicOpt= -1 -1 -1
 NAtoms=      3 NQM=        3 NQMF=       0 NMMI=      0 NMMIF=      0
                NMic=       0 NMicF=      0.
                    Isotopes and Nuclear Properties:
 (Nuclear quadrupole moments (NQMom) in fm**2, nuclear magnetic moments (NMagM)
  in nuclear magnetons)

  Atom         1           2           3
 IAtWgt=          55          16          16
 AtmWgt=  54.9380463  15.9949146  15.9949146
 NucSpn=           5           0           0
 AtZEff=   0.0000000   0.0000000   0.0000000
 NQMom=   33.0000000   0.0000000   0.0000000
 NMagM=    3.4532000   0.0000000   0.0000000
 AtZNuc=  25.0000000   8.0000000   8.0000000
 Leave Link  101 at Wed Oct 28 10:10:41 2015, MaxMem=    33554432 cpu:               0.1 elap:               0.1
 (Enter /home/gauss/gdvi03p/gdv/l202.exe)
                          Input orientation:                          
 ---------------------------------------------------------------------
 Center     Atomic      Atomic             Coordinates (Angstroms)
 Number     Number       Type             X           Y           Z
 ---------------------------------------------------------------------
      1         25           0        0.000000    0.000000    0.000000
      2          8           0        0.000000    0.000000    1.840528
      3          8           0        0.000000    0.000000   -1.840528
 ---------------------------------------------------------------------
                    Distance matrix (angstroms):
                    1          2          3
     1  Mn   0.000000
     2  O    1.840528   0.000000
     3  O    1.840528   3.681056   0.000000
 Symmetry turned off by external request.
 Stoichiometry    MnO2(4)
 Framework group  D*H[O(Mn),C*(O.O)]
 Deg. of freedom     1
 Full point group                 D*H     NOp   8
 Rotational constants (GHZ):      0.0000000      4.6635906      4.6635906
 Leave Link  202 at Wed Oct 28 10:10:41 2015, MaxMem=    33554432 cpu:               0.0 elap:               0.0
 (Enter /home/gauss/gdvi03p/gdv/l301.exe)
 Standard basis: 6-31G (6D, 7F)
 Ernie: Thresh=  0.10000D-02 Tol=  0.10000D-05 Strict=F.
    47 basis functions,   138 primitive gaussians,    47 cartesian basis functions
    22 alpha electrons       19 beta electrons
       nuclear repulsion energy       124.2059643306 Hartrees.
 IExCor=    0 DFT=F Ex=HF Corr=None ExCW=0 ScaHFX=  1.000000
 ScaDFX=  1.000000  1.000000  1.000000  1.000000 ScalE2=  1.000000  1.000000
 IRadAn=      0 IRanWt=     -1 IRanGd=            0 ICorTp=0 IEmpDi=  4
 NAtoms=    3 NActive=    3 NUniq=    3 SFac= 1.00D+00 NAtFMM=   60 NAOKFM=F Big=F
 Integral buffers will be    131072 words long.
 Raffenetti 2 integral format.
 Two-electron integral symmetry is turned off.
 Leave Link  301 at Wed Oct 28 10:10:41 2015, MaxMem=    33554432 cpu:               0.0 elap:               0.1
 (Enter /home/gauss/gdvi03p/gdv/l302.exe)
 NPDir=0 NMtPBC=     1 NCelOv=     1 NCel=       1 NClECP=     1 NCelD=      1
         NCelK=      1 NCelE2=     1 NClLst=     1 CellRange=     0.0.
 One-electron integrals computed using PRISM.
 One-electron integral symmetry used in STVInt
 NBasis=    47 RedAO= T EigKep=  1.96D-03  NBF=    47
 NBsUse=    47 1.00D-06 EigRej= -1.00D+00 NBFU=    47
 Leave Link  302 at Wed Oct 28 10:10:41 2015, MaxMem=    33554432 cpu:               0.1 elap:               0.1
 (Enter /home/gauss/gdvi03p/gdv/l303.exe)
 DipDrv:  MaxL=1.
 Leave Link  303 at Wed Oct 28 10:10:42 2015, MaxMem=    33554432 cpu:               0.0 elap:               0.0
 (Enter /home/gauss/gdvi03p/gdv/l308.exe)
 Leave Link  308 at Wed Oct 28 10:10:42 2015, MaxMem=    33554432 cpu:               0.0 elap:               0.0
 (Enter /home/gauss/gdvi03p/gdv/l401.exe)
 ExpMin= 3.84D-02 ExpMax= 5.63D+04 ExpMxC= 8.46D+03 IAcc=3 IRadAn=         5 AccDes= 0.00D+00
 Harris functional with IExCor=  205 and IRadAn=       5 diagonalized for initial guess.
 HarFok:  IExCor=  205 AccDes= 0.00D+00 IRadAn=         5 IDoV= 1 UseB2=F ITyADJ=14
 ICtDFT=  3500011 ScaDFX=  1.000000  1.000000  1.000000  1.000000
 FoFCou: FMM=F IPFlag=           0 FMFlag=      100000 FMFlg1=           0
         NFxFlg=           0 DoJE=T BraDBF=F KetDBF=T FulRan=T
         wScrn=  0.000000 ICntrl=       500 IOpCl=  0 I1Cent=   200000004 NGrid=           0
         NMat0=    1 NMatS0=      1 NMatT0=    0 NMatD0=    1 NMtDS0=    0 NMtDT0=    0
 Symmetry not used in FoFCou.
 Harris En= -1298.75086608616    
 JPrj=0 DoOrth=F DoCkMO=F.
 Initial guess <Sx>= 0.0000 <Sy>= 0.0000 <Sz>= 1.5000 <S**2>= 3.7500 S= 1.5000
 Leave Link  401 at Wed Oct 28 10:10:42 2015, MaxMem=    33554432 cpu:               0.3 elap:               0.3
 (Enter /home/gauss/gdvi03p/gdv/l502.exe)
 Keep R1 and R2 ints in memory in canonical form, NReq=2110833.
 FoFCou: FMM=F IPFlag=           0 FMFlag=           0 FMFlg1=           0
         NFxFlg=           0 DoJE=F BraDBF=F KetDBF=F FulRan=T
         wScrn=  0.000000 ICntrl=       600 IOpCl=  0 I1Cent=           0 NGrid=           0
         NMat0=    1 NMatS0=   1128 NMatT0=    0 NMatD0=    1 NMtDS0=    0 NMtDT0=    0
 Symmetry not used in FoFCou.
 Two-electron integral symmetry not used.
 UHF open shell SCF:
 Using DIIS extrapolation, IDIIS=  1040.
 NGot=    33554432 LenX=    32275732 LenY=    32273082
 Requested convergence on RMS density matrix=1.00D-08 within 128 cycles.
 Requested convergence on MAX density matrix=1.00D-06.
 Requested convergence on             energy=1.00D-06.
 No special actions if energy rises.

 Cycle   1  Pass 1  IDiag  1:
 E= -1297.78319296709    
 DIIS: error= 2.19D-01 at cycle   1 NSaved=   1.
 NSaved= 1 IEnMin= 1 EnMin= -1297.78319296709     IErMin= 1 ErrMin= 2.19D-01
 ErrMax= 2.19D-01  0.00D+00 EMaxC= 1.00D-01 BMatC= 6.07D+00 BMatP= 6.07D+00
 IDIUse=3 WtCom= 0.00D+00 WtEn= 1.00D+00
 Coeff-Com:  0.100D+01
 Coeff-En:   0.100D+01
 Coeff:      0.100D+01
 Gap=     0.885 Goal=   None    Shift=    0.000
 Gap=    -0.315 Goal=   None    Shift=    0.000
 GapD=   -0.315 DampG=0.250 DampE=0.125 DampFc=0.1250 IDamp=-1.
 Damping current iteration by 1.25D-01
 RMSDP=5.28D-02 MaxDP=6.50D-01              OVMax= 9.91D-01

 Cycle   2  Pass 1  IDiag  1:
 E= -1298.15212800984     Delta-E=       -0.368935042751 Rises=F Damp=T
 DIIS: error= 9.84D-02 at cycle   2 NSaved=   2.
 NSaved= 2 IEnMin= 2 EnMin= -1298.15212800984     IErMin= 2 ErrMin= 9.84D-02
 ErrMax= 9.84D-02  0.00D+00 EMaxC= 1.00D-01 BMatC= 1.63D+00 BMatP= 6.07D+00
 IDIUse=3 WtCom= 1.59D-02 WtEn= 9.84D-01
 Coeff-Com: -0.892D+00 0.189D+01
 Coeff-En:   0.000D+00 0.100D+01
 Coeff:     -0.142D-01 0.101D+01
 Gap=     0.146 Goal=   None    Shift=    0.000
 Gap=    -0.001 Goal=   None    Shift=    0.000
 RMSDP=2.32D-02 MaxDP=2.81D-01 DE=-3.69D-01 OVMax= 9.91D-01

 Cycle   3  Pass 1  IDiag  1:
 E= -1297.43136194976     Delta-E=        0.720766060075 Rises=F Damp=F
 DIIS: error= 3.06D-01 at cycle   3 NSaved=   3.
 NSaved= 3 IEnMin= 2 EnMin= -1298.15212800984     IErMin= 2 ErrMin= 9.84D-02
 ErrMax= 3.06D-01  0.00D+00 EMaxC= 1.00D-01 BMatC= 8.99D+00 BMatP= 1.63D+00
 IDIUse=2 WtCom= 0.00D+00 WtEn= 1.00D+00
 EnCoef did   100 forward-backward iterations
 Coeff-En:   0.539D+00 0.125D-01 0.449D+00
 Coeff:      0.539D+00 0.125D-01 0.449D+00
 Gap=     0.242 Goal=   None    Shift=    0.000
 Gap=     0.531 Goal=   None    Shift=    0.000
 RMSDP=1.51D-02 MaxDP=2.33D-01 DE= 7.21D-01 OVMax= 4.07D-01

 Cycle   4  Pass 1  IDiag  1:
 E= -1298.97951898681     Delta-E=       -1.548157037044 Rises=F Damp=F
 DIIS: error= 2.26D-02 at cycle   4 NSaved=   4.
 NSaved= 4 IEnMin= 4 EnMin= -1298.97951898681     IErMin= 4 ErrMin= 2.26D-02
 ErrMax= 2.26D-02  0.00D+00 EMaxC= 1.00D-01 BMatC= 3.93D-02 BMatP= 1.63D+00
 IDIUse=3 WtCom= 7.74D-01 WtEn= 2.26D-01
 Coeff-Com: -0.325D+00 0.466D+00-0.702D-01 0.929D+00
 Coeff-En:   0.000D+00 0.000D+00 0.000D+00 0.100D+01
 Coeff:     -0.252D+00 0.360D+00-0.544D-01 0.945D+00
 Gap=     0.310 Goal=   None    Shift=    0.000
 Gap=     0.435 Goal=   None    Shift=    0.000
 RMSDP=3.42D-03 MaxDP=5.01D-02 DE=-1.55D+00 OVMax= 9.55D-02

 Cycle   5  Pass 1  IDiag  1:
 E= -1299.00677164385     Delta-E=       -0.027252657044 Rises=F Damp=F
 DIIS: error= 5.17D-02 at cycle   5 NSaved=   5.
 NSaved= 5 IEnMin= 5 EnMin= -1299.00677164385     IErMin= 4 ErrMin= 2.26D-02
 ErrMax= 5.17D-02  0.00D+00 EMaxC= 1.00D-01 BMatC= 9.12D-02 BMatP= 3.93D-02
 IDIUse=2 WtCom= 0.00D+00 WtEn= 1.00D+00
 Coeff-En:   0.000D+00 0.000D+00 0.000D+00 0.000D+00 0.100D+01
 Coeff:      0.000D+00 0.000D+00 0.000D+00 0.000D+00 0.100D+01
 Gap=     0.222 Goal=   None    Shift=    0.000
 Gap=     0.393 Goal=   None    Shift=    0.000
 RMSDP=5.87D-03 MaxDP=1.28D-01 DE=-2.73D-02 OVMax= 2.29D-01

 Cycle   6  Pass 1  IDiag  1:
 E= -1299.01945903655     Delta-E=       -0.012687392701 Rises=F Damp=F
 DIIS: error= 8.45D-02 at cycle   6 NSaved=   6.
 NSaved= 6 IEnMin= 6 EnMin= -1299.01945903655     IErMin= 4 ErrMin= 2.26D-02
 ErrMax= 8.45D-02  0.00D+00 EMaxC= 1.00D-01 BMatC= 3.93D-01 BMatP= 3.93D-02
 IDIUse=2 WtCom= 0.00D+00 WtEn= 1.00D+00
 Coeff-En:   0.000D+00 0.000D+00 0.000D+00 0.000D+00 0.382D+00 0.618D+00
 Coeff:      0.000D+00 0.000D+00 0.000D+00 0.000D+00 0.382D+00 0.618D+00
 Gap=     0.279 Goal=   None    Shift=    0.000
 Gap=     0.535 Goal=   None    Shift=    0.000
 RMSDP=5.87D-03 MaxDP=8.22D-02 DE=-1.27D-02 OVMax= 1.64D-01

 Cycle   7  Pass 1  IDiag  1:
 E= -1299.08695229418     Delta-E=       -0.067493257624 Rises=F Damp=F
 DIIS: error= 6.75D-02 at cycle   7 NSaved=   7.
 NSaved= 7 IEnMin= 7 EnMin= -1299.08695229418     IErMin= 4 ErrMin= 2.26D-02
 ErrMax= 6.75D-02  0.00D+00 EMaxC= 1.00D-01 BMatC= 1.63D-01 BMatP= 3.93D-02
 IDIUse=2 WtCom= 0.00D+00 WtEn= 1.00D+00
 Coeff-En:   0.000D+00 0.000D+00 0.000D+00 0.000D+00 0.000D+00 0.109D+00
 Coeff-En:   0.891D+00
 Coeff:      0.000D+00 0.000D+00 0.000D+00 0.000D+00 0.000D+00 0.109D+00
 Coeff:      0.891D+00
 Gap=     0.207 Goal=   None    Shift=    0.000
 Gap=     0.467 Goal=   None    Shift=    0.000
 RMSDP=5.84D-03 MaxDP=1.28D-01 DE=-6.75D-02 OVMax= 2.20D-01

 Cycle   8  Pass 1  IDiag  1:
 E= -1299.14397765982     Delta-E=       -0.057025365643 Rises=F Damp=F
 DIIS: error= 5.66D-02 at cycle   8 NSaved=   8.
 NSaved= 8 IEnMin= 8 EnMin= -1299.14397765982     IErMin= 4 ErrMin= 2.26D-02
 ErrMax= 5.66D-02  0.00D+00 EMaxC= 1.00D-01 BMatC= 2.25D-01 BMatP= 3.93D-02
 IDIUse=2 WtCom= 0.00D+00 WtEn= 1.00D+00
 Coeff-En:   0.000D+00 0.000D+00 0.000D+00 0.000D+00 0.000D+00 0.000D+00
 Coeff-En:   0.000D+00 0.100D+01
 Coeff:      0.000D+00 0.000D+00 0.000D+00 0.000D+00 0.000D+00 0.000D+00
 Coeff:      0.000D+00 0.100D+01
 Gap=     0.247 Goal=   None    Shift=    0.000
 Gap=     0.618 Goal=   None    Shift=    0.000
 RMSDP=6.28D-03 MaxDP=1.02D-01 DE=-5.70D-02 OVMax= 1.30D-01

 Cycle   9  Pass 1  IDiag  1:
 E= -1299.18156008520     Delta-E=       -0.037582425384 Rises=F Damp=F
 DIIS: error= 5.38D-02 at cycle   9 NSaved=   9.
 NSaved= 9 IEnMin= 9 EnMin= -1299.18156008520     IErMin= 4 ErrMin= 2.26D-02
 ErrMax= 5.38D-02  0.00D+00 EMaxC= 1.00D-01 BMatC= 1.66D-01 BMatP= 3.93D-02
 IDIUse=2 WtCom= 0.00D+00 WtEn= 1.00D+00
 Coeff-En:   0.000D+00 0.000D+00 0.000D+00 0.000D+00 0.000D+00 0.000D+00
 Coeff-En:   0.000D+00 0.744D-01 0.926D+00
 Coeff:      0.000D+00 0.000D+00 0.000D+00 0.000D+00 0.000D+00 0.000D+00
 Coeff:      0.000D+00 0.744D-01 0.926D+00
 Gap=     0.218 Goal=   None    Shift=    0.000
 Gap=     0.506 Goal=   None    Shift=    0.000
 RMSDP=5.45D-03 MaxDP=9.00D-02 DE=-3.76D-02 OVMax= 1.52D-01

 Cycle  10  Pass 1  IDiag  1:
 E= -1299.21581748914     Delta-E=       -0.034257403941 Rises=F Damp=F
 DIIS: error= 3.00D-02 at cycle  10 NSaved=  10.
 NSaved=10 IEnMin=10 EnMin= -1299.21581748914     IErMin= 4 ErrMin= 2.26D-02
 ErrMax= 3.00D-02  0.00D+00 EMaxC= 1.00D-01 BMatC= 1.38D-01 BMatP= 3.93D-02
 IDIUse=2 WtCom= 0.00D+00 WtEn= 1.00D+00
 Coeff-En:   0.000D+00 0.000D+00 0.000D+00 0.000D+00 0.000D+00 0.000D+00
 Coeff-En:   0.000D+00 0.000D+00 0.777D-01 0.922D+00
 Coeff:      0.000D+00 0.000D+00 0.000D+00 0.000D+00 0.000D+00 0.000D+00
 Coeff:      0.000D+00 0.000D+00 0.777D-01 0.922D+00
 Gap=     0.233 Goal=   None    Shift=    0.000
 Gap=     0.624 Goal=   None    Shift=    0.000
 RMSDP=4.43D-03 MaxDP=7.45D-02 DE=-3.43D-02 OVMax= 5.85D-02

 Cycle  11  Pass 1  IDiag  1:
 E= -1299.23794203644     Delta-E=       -0.022124547300 Rises=F Damp=F
 DIIS: error= 2.35D-02 at cycle  11 NSaved=  11.
 NSaved=11 IEnMin=11 EnMin= -1299.23794203644     IErMin= 4 ErrMin= 2.26D-02
 ErrMax= 2.35D-02  0.00D+00 EMaxC= 1.00D-01 BMatC= 4.72D-02 BMatP= 3.93D-02
 IDIUse=2 WtCom= 0.00D+00 WtEn= 1.00D+00
 Coeff-En:   0.000D+00 0.000D+00 0.000D+00 0.000D+00 0.000D+00 0.000D+00
 Coeff-En:   0.000D+00 0.000D+00 0.000D+00 0.000D+00 0.100D+01
 Coeff:      0.000D+00 0.000D+00 0.000D+00 0.000D+00 0.000D+00 0.000D+00
 Coeff:      0.000D+00 0.000D+00 0.000D+00 0.000D+00 0.100D+01
 Gap=     0.236 Goal=   None    Shift=    0.000
 Gap=     0.554 Goal=   None    Shift=    0.000
 RMSDP=3.05D-03 MaxDP=4.35D-02 DE=-2.21D-02 OVMax= 6.86D-02

 Cycle  12  Pass 1  IDiag  1:
 E= -1299.24747382683     Delta-E=       -0.009531790385 Rises=F Damp=F
 DIIS: error= 1.41D-02 at cycle  12 NSaved=  12.
 NSaved=12 IEnMin=12 EnMin= -1299.24747382683     IErMin=12 ErrMin= 1.41D-02
 ErrMax= 1.41D-02  0.00D+00 EMaxC= 1.00D-01 BMatC= 3.84D-02 BMatP= 3.93D-02
 IDIUse=3 WtCom= 8.59D-01 WtEn= 1.41D-01
 Coeff-Com: -0.137D-02 0.608D-02 0.106D-01-0.772D-01 0.119D+00-0.183D+00
 Coeff-Com:  0.297D+00 0.775D+00-0.897D+00-0.179D+01 0.878D+00 0.187D+01
 Coeff-En:   0.000D+00 0.000D+00 0.000D+00 0.000D+00 0.000D+00 0.000D+00
 Coeff-En:   0.000D+00 0.000D+00 0.000D+00 0.000D+00 0.483D-01 0.952D+00
 Coeff:     -0.117D-02 0.523D-02 0.913D-02-0.664D-01 0.103D+00-0.158D+00
 Coeff:      0.255D+00 0.666D+00-0.770D+00-0.154D+01 0.761D+00 0.174D+01
 Gap=     0.232 Goal=   None    Shift=    0.000
 Gap=     0.612 Goal=   None    Shift=    0.000
 RMSDP=1.92D-03 MaxDP=2.38D-02 DE=-9.53D-03 OVMax= 2.32D-02

 Cycle  13  Pass 1  IDiag  1:
 E= -1299.25672662037     Delta-E=       -0.009252793537 Rises=F Damp=F
 DIIS: error= 3.42D-03 at cycle  13 NSaved=  13.
 NSaved=13 IEnMin=13 EnMin= -1299.25672662037     IErMin=13 ErrMin= 3.42D-03
 ErrMax= 3.42D-03  0.00D+00 EMaxC= 1.00D-01 BMatC= 8.62D-04 BMatP= 3.84D-02
 IDIUse=3 WtCom= 9.66D-01 WtEn= 3.42D-02
 Coeff-Com:  0.851D-02-0.103D-01 0.746D-05 0.328D-01-0.485D-01 0.101D+00
 Coeff-Com: -0.131D+00-0.378D+00 0.400D+00 0.399D+00-0.662D+00-0.365D+00
 Coeff-Com:  0.165D+01
 Coeff-En:   0.000D+00 0.000D+00 0.000D+00 0.000D+00 0.000D+00 0.000D+00
 Coeff-En:   0.000D+00 0.000D+00 0.000D+00 0.000D+00 0.000D+00 0.000D+00
 Coeff-En:   0.100D+01
 Coeff:      0.822D-02-0.990D-02 0.721D-05 0.316D-01-0.468D-01 0.976D-01
 Coeff:     -0.127D+00-0.365D+00 0.386D+00 0.385D+00-0.639D+00-0.353D+00
 Coeff:      0.163D+01
 Gap=     0.243 Goal=   None    Shift=    0.000
 Gap=     0.631 Goal=   None    Shift=    0.000
 RMSDP=1.57D-03 MaxDP=1.65D-02 DE=-9.25D-03 OVMax= 3.22D-02

 Cycle  14  Pass 1  IDiag  1:
 E= -1299.25788793765     Delta-E=       -0.001161317280 Rises=F Damp=F
 DIIS: error= 1.61D-03 at cycle  14 NSaved=  14.
 NSaved=14 IEnMin=14 EnMin= -1299.25788793765     IErMin=14 ErrMin= 1.61D-03
 ErrMax= 1.61D-03  0.00D+00 EMaxC= 1.00D-01 BMatC= 2.07D-04 BMatP= 8.62D-04
 IDIUse=3 WtCom= 9.84D-01 WtEn= 1.61D-02
 Coeff-Com: -0.252D-02 0.334D-02-0.335D-03-0.611D-02 0.644D-02 0.234D-01
 Coeff-Com: -0.155D-01-0.137D+00 0.704D-01 0.332D+00-0.120D+00-0.375D+00
 Coeff-Com:  0.426D+00 0.794D+00
 Coeff-En:   0.000D+00 0.000D+00 0.000D+00 0.000D+00 0.000D+00 0.000D+00
 Coeff-En:   0.000D+00 0.000D+00 0.000D+00 0.000D+00 0.000D+00 0.000D+00
 Coeff-En:   0.000D+00 0.100D+01
 Coeff:     -0.248D-02 0.328D-02-0.329D-03-0.601D-02 0.634D-02 0.230D-01
 Coeff:     -0.152D-01-0.135D+00 0.693D-01 0.327D+00-0.118D+00-0.369D+00
 Coeff:      0.419D+00 0.797D+00
 Gap=     0.241 Goal=   None    Shift=    0.000
 Gap=     0.627 Goal=   None    Shift=    0.000
 RMSDP=3.12D-04 MaxDP=3.39D-03 DE=-1.16D-03 OVMax= 6.67D-03

 Cycle  15  Pass 1  IDiag  1:
 E= -1299.25801947484     Delta-E=       -0.000131537190 Rises=F Damp=F
 DIIS: error= 2.63D-04 at cycle  15 NSaved=  15.
 NSaved=15 IEnMin=15 EnMin= -1299.25801947484     IErMin=15 ErrMin= 2.63D-04
 ErrMax= 2.63D-04  0.00D+00 EMaxC= 1.00D-01 BMatC= 4.74D-06 BMatP= 2.07D-04
 IDIUse=3 WtCom= 9.97D-01 WtEn= 2.63D-03
 Coeff-Com: -0.721D-03 0.640D-03-0.256D-04-0.181D-04 0.128D-02-0.650D-02
 Coeff-Com: -0.284D-02 0.297D-01 0.508D-02-0.508D-01 0.772D-02 0.534D-01
 Coeff-Com: -0.110D+00-0.294D+00 0.137D+01
 Coeff-En:   0.000D+00 0.000D+00 0.000D+00 0.000D+00 0.000D+00 0.000D+00
 Coeff-En:   0.000D+00 0.000D+00 0.000D+00 0.000D+00 0.000D+00 0.000D+00
 Coeff-En:   0.000D+00 0.000D+00 0.100D+01
 Coeff:     -0.719D-03 0.638D-03-0.255D-04-0.181D-04 0.127D-02-0.649D-02
 Coeff:     -0.284D-02 0.296D-01 0.507D-02-0.507D-01 0.770D-02 0.533D-01
 Coeff:     -0.109D+00-0.293D+00 0.137D+01
 Gap=     0.240 Goal=   None    Shift=    0.000
 Gap=     0.627 Goal=   None    Shift=    0.000
 RMSDP=6.76D-05 MaxDP=8.18D-04 DE=-1.32D-04 OVMax= 1.99D-03

 Cycle  16  Pass 1  IDiag  1:
 E= -1299.25802358394     Delta-E=       -0.000004109099 Rises=F Damp=F
 DIIS: error= 3.13D-05 at cycle  16 NSaved=  16.
 NSaved=16 IEnMin=16 EnMin= -1299.25802358394     IErMin=16 ErrMin= 3.13D-05
 ErrMax= 3.13D-05  0.00D+00 EMaxC= 1.00D-01 BMatC= 1.03D-07 BMatP= 4.74D-06
 IDIUse=1 WtCom= 1.00D+00 WtEn= 0.00D+00
 Coeff-Com: -0.475D-04 0.749D-04-0.186D-04-0.589D-04-0.129D-02 0.168D-02
 Coeff-Com:  0.215D-03-0.511D-02 0.147D-02 0.533D-02-0.336D-02-0.328D-02
 Coeff-Com:  0.639D-02 0.520D-01-0.295D+00 0.124D+01
 Coeff:     -0.475D-04 0.749D-04-0.186D-04-0.589D-04-0.129D-02 0.168D-02
 Coeff:      0.215D-03-0.511D-02 0.147D-02 0.533D-02-0.336D-02-0.328D-02
 Coeff:      0.639D-02 0.520D-01-0.295D+00 0.124D+01
 Gap=     0.241 Goal=   None    Shift=    0.000
 Gap=     0.627 Goal=   None    Shift=    0.000
 RMSDP=1.62D-05 MaxDP=1.69D-04 DE=-4.11D-06 OVMax= 3.18D-04

 Cycle  17  Pass 1  IDiag  1:
 E= -1299.25802357154     Delta-E=        0.000000012398 Rises=F Damp=F
 DIIS: error= 4.03D-05 at cycle  17 NSaved=  17.
 NSaved=17 IEnMin=16 EnMin= -1299.25802358394     IErMin=16 ErrMin= 3.13D-05
 ErrMax= 4.03D-05  0.00D+00 EMaxC= 1.00D-01 BMatC= 1.19D-07 BMatP= 1.03D-07
 IDIUse=1 WtCom= 1.00D+00 WtEn= 0.00D+00
 Coeff-Com: -0.462D-05-0.211D-05 0.133D-04 0.531D-03-0.218D-03-0.496D-03
 Coeff-Com: -0.761D-03 0.586D-03 0.219D-02 0.422D-03-0.353D-02-0.166D-02
 Coeff-Com:  0.154D-01-0.336D-01 0.104D+00-0.673D+00 0.159D+01
 Coeff:     -0.462D-05-0.211D-05 0.133D-04 0.531D-03-0.218D-03-0.496D-03
 Coeff:     -0.761D-03 0.586D-03 0.219D-02 0.422D-03-0.353D-02-0.166D-02
 Coeff:      0.154D-01-0.336D-01 0.104D+00-0.673D+00 0.159D+01
 Gap=     0.241 Goal=   None    Shift=    0.000
 Gap=     0.627 Goal=   None    Shift=    0.000
 RMSDP=1.07D-05 MaxDP=1.11D-04 DE= 1.24D-08 OVMax= 2.03D-04

 Cycle  18  Pass 1  IDiag  1:
 E= -1299.25802366587     Delta-E=       -0.000000094332 Rises=F Damp=F
 DIIS: error= 3.85D-06 at cycle  18 NSaved=  18.
 NSaved=18 IEnMin=18 EnMin= -1299.25802366587     IErMin=18 ErrMin= 3.85D-06
 ErrMax= 3.85D-06  0.00D+00 EMaxC= 1.00D-01 BMatC= 1.78D-09 BMatP= 1.03D-07
 IDIUse=1 WtCom= 1.00D+00 WtEn= 0.00D+00
 Coeff-Com:  0.126D-04-0.181D-04 0.566D-05-0.102D-03-0.118D-03-0.180D-03
 Coeff-Com:  0.697D-03 0.784D-03-0.130D-02-0.134D-02 0.194D-02 0.156D-02
 Coeff-Com: -0.849D-02-0.379D-02 0.274D-01 0.408D-01-0.439D+00 0.138D+01
 Coeff:      0.126D-04-0.181D-04 0.566D-05-0.102D-03-0.118D-03-0.180D-03
 Coeff:      0.697D-03 0.784D-03-0.130D-02-0.134D-02 0.194D-02 0.156D-02
 Coeff:     -0.849D-02-0.379D-02 0.274D-01 0.408D-01-0.439D+00 0.138D+01
 Gap=     0.241 Goal=   None    Shift=    0.000
 Gap=     0.627 Goal=   None    Shift=    0.000
 RMSDP=1.20D-06 MaxDP=1.35D-05 DE=-9.43D-08 OVMax= 2.44D-05

 Cycle  19  Pass 1  IDiag  1:
 E= -1299.25802366677     Delta-E=       -0.000000000897 Rises=F Damp=F
 DIIS: error= 4.03D-06 at cycle  19 NSaved=  19.
 NSaved=19 IEnMin=19 EnMin= -1299.25802366677     IErMin=18 ErrMin= 3.85D-06
 ErrMax= 4.03D-06  0.00D+00 EMaxC= 1.00D-01 BMatC= 1.27D-09 BMatP= 1.78D-09
 IDIUse=1 WtCom= 1.00D+00 WtEn= 0.00D+00
 Coeff-Com: -0.867D-05 0.108D-04 0.544D-05-0.396D-04 0.300D-03-0.256D-03
 Coeff-Com: -0.466D-03 0.626D-03 0.407D-03-0.719D-03-0.404D-03 0.414D-03
 Coeff-Com:  0.911D-03 0.713D-02-0.221D-01 0.535D-01-0.708D-01-0.159D+00
 Coeff-Com:  0.119D+01
 Coeff:     -0.867D-05 0.108D-04 0.544D-05-0.396D-04 0.300D-03-0.256D-03
 Coeff:     -0.466D-03 0.626D-03 0.407D-03-0.719D-03-0.404D-03 0.414D-03
 Coeff:      0.911D-03 0.713D-02-0.221D-01 0.535D-01-0.708D-01-0.159D+00
 Coeff:      0.119D+01
 Gap=     0.241 Goal=   None    Shift=    0.000
 Gap=     0.627 Goal=   None    Shift=    0.000
 RMSDP=5.49D-07 MaxDP=6.65D-06 DE=-8.97D-10 OVMax= 1.24D-05

 Cycle  20  Pass 1  IDiag  1:
 E= -1299.25802366703     Delta-E=       -0.000000000265 Rises=F Damp=F
 DIIS: error= 9.05D-07 at cycle  20 NSaved=  20.
 NSaved=20 IEnMin=20 EnMin= -1299.25802366703     IErMin=20 ErrMin= 9.05D-07
 ErrMax= 9.05D-07  0.00D+00 EMaxC= 1.00D-01 BMatC= 5.91D-11 BMatP= 1.27D-09
 IDIUse=1 WtCom= 1.00D+00 WtEn= 0.00D+00
 Coeff-Com: -0.172D-06 0.203D-06 0.663D-06 0.104D-04-0.160D-04-0.235D-04
 Coeff-Com:  0.334D-04 0.445D-04-0.362D-04-0.159D-04-0.390D-05-0.125D-04
 Coeff-Com:  0.404D-03-0.241D-02 0.649D-02-0.344D-01 0.990D-01-0.175D+00
 Coeff-Com: -0.189D+00 0.129D+01
 Coeff:     -0.172D-06 0.203D-06 0.663D-06 0.104D-04-0.160D-04-0.235D-04
 Coeff:      0.334D-04 0.445D-04-0.362D-04-0.159D-04-0.390D-05-0.125D-04
 Coeff:      0.404D-03-0.241D-02 0.649D-02-0.344D-01 0.990D-01-0.175D+00
 Coeff:     -0.189D+00 0.129D+01
 Gap=     0.241 Goal=   None    Shift=    0.000
 Gap=     0.627 Goal=   None    Shift=    0.000
 RMSDP=1.95D-07 MaxDP=2.13D-06 DE=-2.65D-10 OVMax= 3.86D-06

 Cycle  21  Pass 1  IDiag  1:
 E= -1299.25802366709     Delta-E=       -0.000000000059 Rises=F Damp=F
 DIIS: error= 1.79D-07 at cycle  21 NSaved=  20.
 NSaved=20 IEnMin=20 EnMin= -1299.25802366709     IErMin=20 ErrMin= 1.79D-07
 ErrMax= 1.79D-07  0.00D+00 EMaxC= 1.00D-01 BMatC= 3.27D-12 BMatP= 5.91D-11
 IDIUse=1 WtCom= 1.00D+00 WtEn= 0.00D+00
 Coeff-Com: -0.424D-07 0.346D-08-0.143D-05 0.513D-05-0.372D-05-0.817D-05
 Coeff-Com:  0.158D-04 0.609D-05-0.255D-04 0.568D-05 0.243D-04-0.122D-03
 Coeff-Com:  0.395D-03-0.684D-03 0.487D-02-0.178D-01 0.434D-01-0.227D-02
 Coeff-Com: -0.396D+00 0.137D+01
 Coeff:     -0.424D-07 0.346D-08-0.143D-05 0.513D-05-0.372D-05-0.817D-05
 Coeff:      0.158D-04 0.609D-05-0.255D-04 0.568D-05 0.243D-04-0.122D-03
 Coeff:      0.395D-03-0.684D-03 0.487D-02-0.178D-01 0.434D-01-0.227D-02
 Coeff:     -0.396D+00 0.137D+01
 Gap=     0.241 Goal=   None    Shift=    0.000
 Gap=     0.627 Goal=   None    Shift=    0.000
 RMSDP=4.47D-08 MaxDP=7.86D-07 DE=-5.91D-11 OVMax= 6.83D-07

 Cycle  22  Pass 1  IDiag  1:
 E= -1299.25802366709     Delta-E=        0.000000000000 Rises=F Damp=F
 DIIS: error= 9.21D-09 at cycle  22 NSaved=  20.
 NSaved=20 IEnMin=20 EnMin= -1299.25802366709     IErMin=20 ErrMin= 9.21D-09
 ErrMax= 9.21D-09  0.00D+00 EMaxC= 1.00D-01 BMatC= 1.05D-14 BMatP= 3.27D-12
 IDIUse=1 WtCom= 1.00D+00 WtEn= 0.00D+00
 Large coefficients: NSaved= 20 BigCof=    0.00 CofMax=   10.00 Det=-9.10D-15
 Inversion failed.  Reducing to 19 matrices.
 Large coefficients: NSaved= 19 BigCof=    0.00 CofMax=   10.00 Det=-9.47D-15
 Inversion failed.  Reducing to 18 matrices.
 Coeff-Com:  0.254D-06 0.807D-07-0.374D-06-0.611D-06 0.461D-06 0.981D-06
 Coeff-Com: -0.165D-05-0.122D-05 0.150D-04-0.330D-04 0.411D-04-0.422D-03
 Coeff-Com:  0.168D-02-0.479D-02 0.411D-02 0.491D-01-0.269D+00 0.122D+01
 Coeff:      0.254D-06 0.807D-07-0.374D-06-0.611D-06 0.461D-06 0.981D-06
 Coeff:     -0.165D-05-0.122D-05 0.150D-04-0.330D-04 0.411D-04-0.422D-03
 Coeff:      0.168D-02-0.479D-02 0.411D-02 0.491D-01-0.269D+00 0.122D+01
 Gap=     0.241 Goal=   None    Shift=    0.000
 Gap=     0.627 Goal=   None    Shift=    0.000
 RMSDP=2.53D-09 MaxDP=6.21D-08 DE=-4.55D-13 OVMax= 2.99D-08

 SCF Done:  E(UHF) =  -1299.25802367     A.U. after   22 cycles
            NFock= 22  Conv=0.25D-08     -V/T= 2.0003
 <Sx>= 0.0000 <Sy>= 0.0000 <Sz>= 1.5000 <S**2>= 6.1330 S= 2.0265
 <L.S>= 0.000000000000E+00
 KE= 1.298866297663D+03 PE=-3.336818208781D+03 EE= 6.144879231204D+02
 Annihilation of the first spin contaminant:
 S**2 before annihilation     6.1330,   after     7.5032
 Leave Link  502 at Wed Oct 28 10:10:42 2015, MaxMem=    33554432 cpu:               0.3 elap:               0.3
 (Enter /home/gauss/gdvi03p/gdv/l801.exe)
 Range of M.O.s used for correlation:     1    47
 NBasis=    47 NAE=    22 NBE=    19 NFC=     0 NFV=     0
 NROrb=     47 NOA=    22 NOB=    19 NVA=    25 NVB=    28

 **** Warning!!: The largest alpha MO coefficient is  0.17733369D+02


 **** Warning!!: The largest beta MO coefficient is  0.17736822D+02

 Leave Link  801 at Wed Oct 28 10:10:42 2015, MaxMem=    33554432 cpu:               0.0 elap:               0.0
 (Enter /home/gauss/gdvi03p/gdv/l804.exe)
 Open-shell transformation, MDV=    33554432 ITran=3 ISComp=1.
 Unit  1 TFree=        137648 TCopy=        169261.
 Semi-Direct transformation.
 ModeAB=           2 MOrb=            22 LenV=      33338325
 LASXX=       525646 LTotXX=      525646 LenRXX=      525646
 LTotAB=      682484 MaxLAS=     1166352 LenRXY=     1166352
 NonZer=     1227358 LenScr=     2453504 LnRSAI=           0
 LnScr1=           0 LExtra=           0 Total=      4145502
 MaxDsk=          -1 SrtSym=           F ITran=            3
 DoSDTr:  NPSUse=  1
 JobTyp=1 Pass  1:  I=   1 to  22.
 (rs|ai) integrals will be sorted in core.
 Complete sort for first half transformation.
 First half transformation complete.
 Begin second half transformation for I=  10.
 Begin second half transformation for I=  20.
 Begin second half transformation for I=  10.
 Begin second half transformation for I=  20.
 Complete sort for second half transformation.
 Second half transformation complete.
 ModeAB=           2 MOrb=            19 LenV=      33338325
 LASXX=       453340 LTotXX=      453340 LenRXX=     1007304
 LTotAB=       61750 MaxLAS=     1007304 LenRXY=       61750
 NonZer=     1059991 LenScr=     2357760 LnRSAI=           0
 LnScr1=           0 LExtra=           0 Total=      3426814
 MaxDsk=          -1 SrtSym=           F ITran=            3
 DoSDTr:  NPSUse=  1
 JobTyp=2 Pass  1:  I=   1 to  19.
 (rs|ai) integrals will be sorted in core.
 Complete sort for first half transformation.
 First half transformation complete.
 Begin second half transformation for I=  10.
 Begin second half transformation for I=  10.
 Complete sort for second half transformation.
 Second half transformation complete.
 Spin components of T(2) and E(2):
     alpha-alpha T2 =       0.1253721915D+00 E2=     -0.1380996175D+00
     alpha-beta  T2 =       0.7496411473D-01 E2=     -0.2285730667D+00
     beta-beta   T2 =       0.1290370921D-01 E2=     -0.5584816931D-01
 ANorm=    0.1101471750D+01
 E2 =    -0.4225208536D+00 EUMP2 =    -0.12996805445207D+04
 (S**2,0)=  0.61330D+01           (S**2,1)=  0.59515D+01
 E(PUHF)=      -0.12993116071D+04        E(PMP2)=      -0.12997332241D+04
 Leave Link  804 at Wed Oct 28 10:10:44 2015, MaxMem=    33554432 cpu:               1.4 elap:               1.3
 (Enter /home/gauss/gdvi03p/gdv/l914.exe)
 UHF ground state
 MDV=    33554432 DFT=F DoStab=F Mixed=F DoRPA=F DoScal=F NonHer=F
 Making orbital integer symmetry assigments:
 FoFJK:  IHMeth= 1 ICntrl=       0 DoSepK=F KAlg= 0 I1Cent=           0 FoldK=F
 IRaf=         0 NMat=       2 IRICut=       1 DoRegI=T DoRafI=F ISym2E= 0 IDoP0=0 IntGTp=1.
 FoFCou: FMM=F IPFlag=           0 FMFlag=      100000 FMFlg1=           0
         NFxFlg=           0 DoJE=F BraDBF=F KetDBF=F FulRan=T
         wScrn=  0.000000 ICntrl=         0 IOpCl=  1 I1Cent=           0 NGrid=           0
         NMat0=    2 NMatS0=      2 NMatT0=    0 NMatD0=    2 NMtDS0=    0 NMtDT0=    0
 Symmetry not used in FoFCou.
    48 initial guesses have been made.
 Convergence on wavefunction:    0.001000000000000
 Davidson Disk Diagonalization:  ConvIn= 1.00D-03 SkipCon=T Conv= 1.00D-03.
 Max sub-space:   200 roots to seek:    48 dimension of matrix:         1082
 Iteration     1 Dimension    48 NMult     0 NNew     48
 New state      1 was old state      4
 New state      2 was old state      3
 New state      3 was old state      1
 New state      4 was old state      6
 New state      6 was old state     14
 New state      7 was old state     13
 New state      9 was old state      7
 New state     10 was old state      9
 New state     11 was old state     12
 New state     12 was old state     11
 Excitation Energies [eV] at current iteration:
 Root      1 :    -1.632595878412111
 Root      2 :    -1.632595000779616
 Root      3 :    -1.598535720120714
 Root      4 :     2.391188598019420
 Root      5 :     2.391188598019517
 Root      6 :     3.084664062437397
 Root      7 :     3.084664062437549
 Root      8 :     3.866309225744168
 Root      9 :     3.866309225744168
 Root     10 :     3.966317650156628
 Root     11 :     4.017309756799970
 Root     12 :     4.017309756799970
 Root     13 :     4.462054472719423
 Root     14 :     5.668206970602964
 Root     15 :     5.775568713628591
 Root     16 :     5.775568713628639
 Root     17 :     8.010841310033451
 Root     18 :     8.010841310033541
 Root     19 :     8.428649033026357
 Root     20 :     9.705762024258808
 Root     21 :     9.705762024258856
 Root     22 :     9.750317464815163
 Root     23 :    10.486998894927290
 Root     24 :    10.621632789219920
 Root     25 :    10.621632789219920
 Root     26 :    10.697162031156480
 Root     27 :    10.762518315505220
 Root     28 :    12.036705512180160
 Root     29 :    13.906155710316120
 Root     30 :    14.955382964301260
 Root     31 :    15.401010729141220
 Root     32 :    15.401010729141390
 Root     33 :    15.438408280567420
 Root     34 :    15.438408280567780
 Root     35 :    16.088907752325870
 Root     36 :    16.088907752326110
 Root     37 :    16.397281906498790
 Root     38 :    16.397412747942300
 Root     39 :    16.862904975776090
 Root     40 :    16.862904975776370
 Root     41 :    17.186633067243870
 Root     42 :    17.186633067244630
 Root     43 :    17.852676680698810
 Root     44 :    18.091794619775500
 Root     45 :    18.091794619775500
 Root     46 :    18.098840187556500
 Root     47 :    18.098840187556520
 Root     48 :    18.114110860525700
 Iteration     2 Dimension    96 NMult    48 NNew     48
 New state      1 was old state      2
 Root      1 not converged, maximum delta is    0.031783942340928
 New state      2 was old state      1
 Root      2 not converged, maximum delta is    0.031806341040113
 Root      3 not converged, maximum delta is    0.028825955138583
 New state      4 was old state      6
 Root      4 not converged, maximum delta is    0.294954772756365
 New state      5 was old state      7
 Root      5 not converged, maximum delta is    0.294954772756289
 New state      6 was old state      4
 Root      6 not converged, maximum delta is    0.132122466347547
 New state      7 was old state      5
 Root      7 not converged, maximum delta is    0.132122466347559
 New state      8 was old state     11
 Root      8 not converged, maximum delta is    0.354189806750130
 New state      9 was old state     12
 Root      9 not converged, maximum delta is    0.354189806750159
 New state     10 was old state     13
 Root     10 not converged, maximum delta is    0.132889143376566
 New state     11 was old state      9
 Root     11 not converged, maximum delta is    0.190874112723257
 New state     12 was old state      8
 Root     12 not converged, maximum delta is    0.190874112723276
 Excitation Energies [eV] at current iteration:
 Root      1 :    -1.774000167233604   Change is   -0.141405166453988
 Root      2 :    -1.773995519074082   Change is   -0.141399640661971
 Root      3 :    -1.734633294556567   Change is   -0.136097574435853
 Root      4 :     1.363401171008031   Change is   -1.721262891429366
 Root      5 :     1.363401171008152   Change is   -1.721262891429397
 Root      6 :     2.236383754766039   Change is   -0.154804843253381
 Root      7 :     2.236383754766136   Change is   -0.154804843253381
 Root      8 :     2.326776283089980   Change is   -1.690533473709991
 Root      9 :     2.326776283090046   Change is   -1.690533473709924
 Root     10 :     3.278162290979589   Change is   -1.183892181739834
 Root     11 :     3.858107382956067   Change is   -0.008201842788101
 Root     12 :     3.858107382956103   Change is   -0.008201842788065
 Root     13 :     3.963310077166721   Change is   -0.003007572989907
 Root     14 :     5.101164638891398   Change is   -0.567042331711565
 Root     15 :     5.711722345548757   Change is   -0.063846368079834
 Root     16 :     5.711722345548805   Change is   -0.063846368079834
 Root     17 :     7.346816311863174   Change is   -1.081832721163183
 Root     18 :     7.796918314518138   Change is   -0.213922995515312
 Root     19 :     7.796918314518162   Change is   -0.213922995515379
 Root     20 :     8.429419748629165   Change is   -2.057579146298127
 Root     21 :     9.668120267735430   Change is   -0.037641756523425
 Root     22 :     9.668120267735485   Change is   -0.037641756523322
 Root     23 :     9.720952187173946   Change is   -0.029365277641218
 Root     24 :    10.474652578427410   Change is   -0.222509452729067
 Root     25 :    10.604221695870460   Change is   -0.017411093349461
 Root     26 :    10.604221695870480   Change is   -0.017411093349437
 Root     27 :    10.752961103534750   Change is   -0.009557211970474
 Root     28 :    10.954548168809810   Change is   -1.082157343370348
 Root     29 :    11.217727921890730   Change is   -2.688427788425388
 Root     30 :    11.419233641455170
 Root     31 :    11.419233641455340
 Root     32 :    12.143909152607730   Change is   -2.811473811693534
 Root     33 :    12.318879249177500   Change is   -3.082131479963897
 Root     34 :    12.318879249179470   Change is   -3.082131479961752
 Root     35 :    12.513497083303610   Change is   -2.924911197264168
 Root     36 :    12.513497083303740   Change is   -2.924911197263685
 Root     37 :    12.599467182488380   Change is   -3.489440569837730
 Root     38 :    12.599467182490830   Change is   -3.489440569835047
 Root     39 :    15.642983893205010   Change is   -1.219921082571085
 Root     40 :    15.642983893205070   Change is   -1.219921082571297
 Root     41 :    15.800493690507340   Change is   -0.596919057434954
 Root     42 :    15.800524788683540   Change is   -0.596757117815251
 Root     43 :    15.826641269290490
 Root     44 :    15.826641269291800
 Root     45 :    16.616039383948200   Change is   -0.570593683295667
 Root     46 :    16.616039383948760   Change is   -0.570593683295873
 Root     47 :    16.780643027116850   Change is   -1.333467833408849
 Root     48 :    16.919686193771910   Change is   -0.932990486926897
 Iteration     3 Dimension   108 NMult    96 NNew     12
 New state      1 was old state      2
 Root      1 not converged, maximum delta is    0.004309604204247
 New state      2 was old state      1
 Root      2 not converged, maximum delta is    0.004306097677847
 Root      3 not converged, maximum delta is    0.003901826712846
 Root      4 not converged, maximum delta is    0.171222370182950
 Root      5 not converged, maximum delta is    0.171222370182865
 New state      6 was old state      8
 Root      6 not converged, maximum delta is    0.099572267787557
 New state      7 was old state      9
 Root      7 not converged, maximum delta is    0.099572267787552
 New state      8 was old state      6
 Root      8 not converged, maximum delta is    0.241962773391206
 New state      9 was old state      7
 Root      9 not converged, maximum delta is    0.241962773391199
 Root     10 not converged, maximum delta is    0.016106041420541
 Root     11 not converged, maximum delta is    0.002352886584282
 Root     12 not converged, maximum delta is    0.002352886584281
 Excitation Energies [eV] at current iteration:
 Root      1 :    -1.775760999908635   Change is   -0.001765480834554
 Root      2 :    -1.775760808290573   Change is   -0.001760641056969
 Root      3 :    -1.736054380813931   Change is   -0.001421086257363
 Root      4 :     1.327112681232686   Change is   -0.036288489775345
 Root      5 :     1.327112681232849   Change is   -0.036288489775303
 Root      6 :     2.151691782822990   Change is   -0.175084500266990
 Root      7 :     2.151691782823050   Change is   -0.175084500266996
 Root      8 :     2.232996751786743   Change is   -0.003387002979296
 Root      9 :     2.232996751786821   Change is   -0.003387002979314
 Root     10 :     3.242790781947651   Change is   -0.035371509031938
 Root     11 :     3.857793587109644   Change is   -0.000313795846422
 Root     12 :     3.857793587109675   Change is   -0.000313795846428
 Iteration     4 Dimension   120 NMult   108 NNew     12
 New state      1 was old state      2
 Root      1 has converged.
 New state      2 was old state      1
 Root      2 has converged.
 Root      3 has converged.
 Root      4 not converged, maximum delta is    0.267431412653016
 Root      5 not converged, maximum delta is    0.267431412652904
 Root      6 not converged, maximum delta is    0.070254121875025
 Root      7 not converged, maximum delta is    0.070254121875043
 Root      8 not converged, maximum delta is    0.252288366155324
 Root      9 not converged, maximum delta is    0.252288366155320
 Root     10 not converged, maximum delta is    0.002502219376379
 Root     11 not converged, maximum delta is    0.001002972799304
 Root     12 not converged, maximum delta is    0.001002972799304
 Excitation Energies [eV] at current iteration:
 Root      1 :    -1.775773768241146   Change is   -0.000012959950573
 Root      2 :    -1.775773768028979   Change is   -0.000012768120344
 Root      3 :    -1.736064032208689   Change is   -0.000009651394759
 Root      4 :     1.326659703479272   Change is   -0.000452977753415
 Root      5 :     1.326659703479386   Change is   -0.000452977753463
 Root      6 :     2.139549278222566   Change is   -0.012142504600424
 Root      7 :     2.139549278222626   Change is   -0.012142504600424
 Root      8 :     2.232932918543131   Change is   -0.000063833243612
 Root      9 :     2.232932918543221   Change is   -0.000063833243600
 Root     10 :     3.241601243630765   Change is   -0.001189538316887
 Root     11 :     3.857766799846496   Change is   -0.000026787263149
 Root     12 :     3.857766799846514   Change is   -0.000026787263161
 Iteration     5 Dimension   129 NMult   120 NNew      9
 New state      1 was old state      2
 Root      1 has converged.
 New state      2 was old state      1
 Root      2 has converged.
 Root      3 has converged.
 Root      4 not converged, maximum delta is    0.193923103154142
 Root      5 not converged, maximum delta is    0.193923103154129
 Root      6 not converged, maximum delta is    0.125092472703546
 Root      7 not converged, maximum delta is    0.125092472703576
 Root      8 not converged, maximum delta is    0.102583889878523
 Root      9 not converged, maximum delta is    0.102583889878523
 Root     10 has converged.
 Root     11 has converged.
 Root     12 has converged.
 Excitation Energies [eV] at current iteration:
 Root      1 :    -1.775773768773093   Change is   -0.000000000744114
 Root      2 :    -1.775773768241131   Change is    0.000000000000015
 Root      3 :    -1.736064032208650   Change is    0.000000000000039
 Root      4 :     1.326652973914089   Change is   -0.000006729565182
 Root      5 :     1.326652973914138   Change is   -0.000006729565249
 Root      6 :     2.139400295581714   Change is   -0.000148982640852
 Root      7 :     2.139400295581829   Change is   -0.000148982640797
 Root      8 :     2.232931310350372   Change is   -0.000001608192759
 Root      9 :     2.232931310350481   Change is   -0.000001608192741
 Root     10 :     3.241573574644875   Change is   -0.000027668985890
 Root     11 :     3.857765135615185   Change is   -0.000001664231311
 Root     12 :     3.857765135615221   Change is   -0.000001664231293
 Iteration     6 Dimension   135 NMult   129 NNew      6
 DSYEVD-2 returned Info=         271 IAlg= 4 N=   135 NDim=   135 NE2=      246002 trying  DSYEV.
 Root      1 has converged.
 Root      2 has converged.
 Root      3 has converged.
 Root      4 not converged, maximum delta is    0.442381876763527
 Root      5 not converged, maximum delta is    0.442381876763458
 Root      6 not converged, maximum delta is    0.286604200195753
 Root      7 not converged, maximum delta is    0.286604200195859
 Root      8 not converged, maximum delta is    0.080264881926951
 Root      9 not converged, maximum delta is    0.080264881926951
 Root     10 has converged.
 Root     11 not converged, maximum delta is    0.020172906662140
 Root     12 not converged, maximum delta is    0.020172906662408
 Excitation Energies [eV] at current iteration:
 Root      1 :    -1.775773768773085   Change is    0.000000000000008
 Root      2 :    -1.775773768241119   Change is    0.000000000000012
 Root      3 :    -1.736064032208699   Change is   -0.000000000000049
 Root      4 :     1.326652870099434   Change is   -0.000000103814656
 Root      5 :     1.326652870099607   Change is   -0.000000103814530
 Root      6 :     2.139397046774233   Change is   -0.000003248807481
 Root      7 :     2.139397046774318   Change is   -0.000003248807511
 Root      8 :     2.232931273412326   Change is   -0.000000036938046
 Root      9 :     2.232931273412421   Change is   -0.000000036938060
 Root     10 :     3.241573574644883   Change is    0.000000000000008
 Root     11 :     3.857765135615195   Change is    0.000000000000011
 Root     12 :     3.857765135615206   Change is   -0.000000000000015
 Iteration     7 Dimension   143 NMult   135 NNew      8
 Root      1 has converged.
 Root      2 has converged.
 Root      3 has converged.
 Root      4 not converged, maximum delta is    0.228419747864185
 Root      5 not converged, maximum delta is    0.228419747864087
 Root      6 not converged, maximum delta is    0.188516551438886
 Root      7 not converged, maximum delta is    0.188516551438964
 Root      8 not converged, maximum delta is    0.270311626404084
 Root      9 not converged, maximum delta is    0.270311626404085
 Root     10 has converged.
 Root     11 has converged.
 Root     12 has converged.
 Excitation Energies [eV] at current iteration:
 Root      1 :    -1.775773768773084   Change is    0.000000000000001
 Root      2 :    -1.775773768241101   Change is    0.000000000000018
 Root      3 :    -1.736064032208674   Change is    0.000000000000025
 Root      4 :     1.326652869287743   Change is   -0.000000000811690
 Root      5 :     1.326652869287894   Change is   -0.000000000811713
 Root      6 :     2.139396888369866   Change is   -0.000000158404367
 Root      7 :     2.139396888369939   Change is   -0.000000158404380
 Root      8 :     2.232931272662419   Change is   -0.000000000749907
 Root      9 :     2.232931272662492   Change is   -0.000000000749929
 Root     10 :     3.241573574644880   Change is   -0.000000000000002
 Root     11 :     3.857765102255018   Change is   -0.000000033360177
 Root     12 :     3.857765102255037   Change is   -0.000000033360169
 Iteration     8 Dimension   145 NMult   143 NNew      2
 DSYEVD-2 returned Info=         291 IAlg= 4 N=   145 NDim=   145 NE2=      229036 trying  DSYEV.
 Root      1 has converged.
 Root      2 has converged.
 Root      3 has converged.
 Root      4 not converged, maximum delta is    0.227923823369676
 Root      5 not converged, maximum delta is    0.227923823369579
 Root      6 not converged, maximum delta is    0.157533846836791
 Root      7 not converged, maximum delta is    0.157533846836854
 Root      8 not converged, maximum delta is    0.248221603060606
 Root      9 not converged, maximum delta is    0.248221603060606
 Root     10 has converged.
 Root     11 not converged, maximum delta is    0.155763954521093
 Root     12 not converged, maximum delta is    0.155763954521093
 Excitation Energies [eV] at current iteration:
 Root      1 :    -1.775773768773095   Change is   -0.000000000000011
 Root      2 :    -1.775773768241085   Change is    0.000000000000016
 Root      3 :    -1.736064032208668   Change is    0.000000000000006
 Root      4 :     1.326652869287654   Change is   -0.000000000000089
 Root      5 :     1.326652869287877   Change is   -0.000000000000017
 Root      6 :     2.139396884601298   Change is   -0.000000003768568
 Root      7 :     2.139396884601393   Change is   -0.000000003768545
 Root      8 :     2.232931272662407   Change is   -0.000000000000012
 Root      9 :     2.232931272662492   Change is    0.000000000000000
 Root     10 :     3.241573574644910   Change is    0.000000000000029
 Root     11 :     3.857765102254981   Change is   -0.000000000000038
 Root     12 :     3.857765102254992   Change is   -0.000000000000045
 Iteration     9 Dimension   147 NMult   145 NNew      2
 Root      1 has converged.
 Root      2 has converged.
 Root      3 has converged.
 Root      4 not converged, maximum delta is    0.126308466313193
 Root      5 not converged, maximum delta is    0.126308466313156
 Root      6 not converged, maximum delta is    0.511297426074108
 Root      7 not converged, maximum delta is    0.511297426074150
 Root      8 not converged, maximum delta is    0.091941851986377
 Root      9 not converged, maximum delta is    0.091941851986377
 Root     10 has converged.
 Root     11 has converged.
 Root     12 has converged.
 Excitation Energies [eV] at current iteration:
 Root      1 :    -1.775773768773102   Change is   -0.000000000000007
 Root      2 :    -1.775773768241092   Change is   -0.000000000000007
 Root      3 :    -1.736064032208635   Change is    0.000000000000033
 Root      4 :     1.326652869287689   Change is    0.000000000000035
 Root      5 :     1.326652869287852   Change is   -0.000000000000025
 Root      6 :     2.139396884601304   Change is    0.000000000000006
 Root      7 :     2.139396884601322   Change is   -0.000000000000071
 Root      8 :     2.232931272662432   Change is    0.000000000000025
 Root      9 :     2.232931272662510   Change is    0.000000000000018
 Root     10 :     3.241573574644880   Change is   -0.000000000000029
 Root     11 :     3.857765102011333   Change is   -0.000000000243648
 Root     12 :     3.857765102011357   Change is   -0.000000000243635
 Iteration    10 Dimension   149 NMult   147 NNew      2
 Root      1 has converged.
 Root      2 has converged.
 Root      3 has converged.
 Root      4 not converged, maximum delta is    0.415050201510798
 Root      5 not converged, maximum delta is    0.415050201510726
 Root      6 not converged, maximum delta is    0.477886311034234
 Root      7 not converged, maximum delta is    0.477886311034268
 Root      8 not converged, maximum delta is    0.410533818743752
 Root      9 not converged, maximum delta is    0.410533818743753
 Root     10 has converged.
 Root     11 not converged, maximum delta is    0.102383617711047
 Root     12 not converged, maximum delta is    0.102383617711093
 Excitation Energies [eV] at current iteration:
 Root      1 :    -1.775773768773075   Change is    0.000000000000027
 Root      2 :    -1.775773768241104   Change is   -0.000000000000012
 Root      3 :    -1.736064032208689   Change is   -0.000000000000054
 Root      4 :     1.326652869287785   Change is    0.000000000000097
 Root      5 :     1.326652869287816   Change is   -0.000000000000036
 Root      6 :     2.139396884306478   Change is   -0.000000000294826
 Root      7 :     2.139396884306563   Change is   -0.000000000294760
 Root      8 :     2.232931272662437   Change is    0.000000000000006
 Root      9 :     2.232931272662462   Change is   -0.000000000000048
 Root     10 :     3.241573574644905   Change is    0.000000000000024
 Root     11 :     3.857765102011309   Change is   -0.000000000000024
 Root     12 :     3.857765102011315   Change is   -0.000000000000042
 Convergence achieved on expansion vectors.
 ***********************************************************************
 Excited states from <AA,BB:AA,BB> singles matrix:
 ***********************************************************************
 
 ExtSpn:  IState=     1 X2= 1.000 Y2= 0.000 X2-Y2-1= 4.44D-16
          S2Grnd=  6.133 Ra= -0.146 Rb=  0.000 T=  0.002 S2Ext= -0.144 S2=  5.989
 ExtSpn:  IState=     2 X2= 1.000 Y2= 0.000 X2-Y2-1= 6.66D-16
          S2Grnd=  6.133 Ra= -0.146 Rb=  0.000 T=  0.002 S2Ext= -0.144 S2=  5.989
 ExtSpn:  IState=     3 X2= 1.000 Y2= 0.000 X2-Y2-1= 2.00D-15
          S2Grnd=  6.133 Ra= -0.146 Rb=  0.000 T=  0.000 S2Ext= -0.146 S2=  5.987
 ExtSpn:  IState=     4 X2= 1.000 Y2= 0.000 X2-Y2-1= 4.44D-16
          S2Grnd=  6.133 Ra=  0.169 Rb=  0.000 T=  0.010 S2Ext=  0.180 S2=  6.313
 ExtSpn:  IState=     5 X2= 1.000 Y2= 0.000 X2-Y2-1= 2.44D-15
          S2Grnd=  6.133 Ra=  0.169 Rb=  0.000 T=  0.010 S2Ext=  0.180 S2=  6.313
 ExtSpn:  IState=     6 X2= 1.000 Y2= 0.000 X2-Y2-1=-4.44D-16
          S2Grnd=  6.133 Ra=  0.020 Rb=  0.000 T=  0.009 S2Ext=  0.029 S2=  6.162
 ExtSpn:  IState=     7 X2= 1.000 Y2= 0.000 X2-Y2-1=-1.33D-15
          S2Grnd=  6.133 Ra=  0.020 Rb=  0.000 T=  0.009 S2Ext=  0.029 S2=  6.162
 ExtSpn:  IState=     8 X2= 1.000 Y2= 0.000 X2-Y2-1= 2.89D-15
          S2Grnd=  6.133 Ra=  0.701 Rb=  0.000 T=  0.031 S2Ext=  0.733 S2=  6.866
 ExtSpn:  IState=     9 X2= 1.000 Y2= 0.000 X2-Y2-1= 2.00D-15
          S2Grnd=  6.133 Ra=  0.701 Rb=  0.000 T=  0.031 S2Ext=  0.733 S2=  6.866
 ExtSpn:  IState=    10 X2= 1.000 Y2= 0.000 X2-Y2-1=-2.33D-15
          S2Grnd=  6.133 Ra= -0.025 Rb=  0.011 T= -0.028 S2Ext= -0.042 S2=  6.091
 ExtSpn:  IState=    11 X2= 1.000 Y2= 0.000 X2-Y2-1= 4.44D-16
          S2Grnd=  6.133 Ra=  0.489 Rb=  0.000 T=  0.015 S2Ext=  0.503 S2=  6.636
 ExtSpn:  IState=    12 X2= 1.000 Y2= 0.000 X2-Y2-1= 1.33D-15
          S2Grnd=  6.133 Ra=  0.489 Rb=  0.000 T=  0.015 S2Ext=  0.503 S2=  6.636
 1PDM for each excited state written to RWF  633
 Ground to excited state transition densities written to RWF  633
 Ground to excited state transition electric dipole moments (Au):
       state          X           Y           Z        Dip. S.      Osc.
         1         0.0000      0.0000      0.0000      0.0000      0.0000
         2         0.0000      0.0000      0.0000      0.0000      0.0000
         3         0.0000      0.0000      0.0000      0.0000      0.0000
         4        -0.0382     -0.3131      0.0000      0.0995      0.0032
         5        -0.3131      0.0382      0.0000      0.0995      0.0032
         6         0.0000      0.0000      0.0000      0.0000      0.0000
         7         0.0000      0.0000      0.0000      0.0000      0.0000
         8        -0.9447      0.8494      0.0000      1.6139      0.0883
         9        -0.8494     -0.9447      0.0000      1.6139      0.0883
        10         0.0000      0.0000     -3.1218      9.7459      0.7740
        11         0.0000      0.0000      0.0000      0.0000      0.0000
        12         0.0000      0.0000      0.0000      0.0000      0.0000
 Ground to excited state transition velocity dipole moments (Au):
       state          X           Y           Z        Dip. S.      Osc.
         1         0.0000      0.0000      0.0000      0.0000      0.0000
         2         0.0000      0.0000      0.0000      0.0000      0.0000
         3         0.0000      0.0000      0.0000      0.0000      0.0000
         4         0.0125      0.1026      0.0000      0.0107      0.1462
         5         0.1026     -0.0125      0.0000      0.0107      0.1462
         6         0.0000      0.0000      0.0000      0.0000      0.0000
         7         0.0000      0.0000      0.0000      0.0000      0.0000
         8         0.0395     -0.0355      0.0000      0.0028      0.0229
         9         0.0355      0.0395      0.0000      0.0028      0.0229
        10         0.0000      0.0000     -0.1096      0.0120      0.0673
        11         0.0000      0.0000      0.0000      0.0000      0.0000
        12         0.0000      0.0000      0.0000      0.0000      0.0000
 Ground to excited state transition magnetic dipole moments (Au):
       state          X           Y           Z
         1         0.0000      0.0000      0.0000
         2         0.0000      0.0000      0.0000
         3         0.0000      0.0000      0.0000
         4         0.0000      0.0000      0.0000
         5         0.0000      0.0000      0.0000
         6        -1.1478     -0.8307      0.0000
         7        -0.8307      1.1478      0.0000
         8         0.0000      0.0000      0.0000
         9         0.0000      0.0000      0.0000
        10         0.0000      0.0000      0.0000
        11         0.0000      0.0000      0.0000
        12         0.0000      0.0000      0.0000
 Ground to excited state transition velocity quadrupole moments (Au):
       state          XX          YY          ZZ          XY          XZ          YZ
         1         0.0000      0.0000      0.0000      0.0000      0.0000      0.0000
         2         0.0000      0.0000      0.0000      0.0000      0.0000      0.0000
         3         0.0000      0.0000      0.0000      0.0000      0.0000      0.0000
         4         0.0000      0.0000      0.0000      0.0000      0.0000      0.0000
         5         0.0000      0.0000      0.0000      0.0000      0.0000      0.0000
         6         0.0000      0.0000      0.0000      0.0000     -0.1271      0.1756
         7         0.0000      0.0000      0.0000      0.0000      0.1756      0.1271
         8         0.0000      0.0000      0.0000      0.0000      0.0000      0.0000
         9         0.0000      0.0000      0.0000      0.0000      0.0000      0.0000
        10         0.0000      0.0000      0.0000      0.0000      0.0000      0.0000
        11         0.3052     -0.3052      0.0000     -0.1135      0.0000      0.0000
        12         0.1135     -0.1135      0.0000      0.3052      0.0000      0.0000
 <0|del|b> * <b|rxdel|0> + <0|del|b> * <b|delr+rdel|0>
 Rotatory Strengths (R) in cgs (10**-40 erg-esu-cm/Gauss)
       state          XX          YY          ZZ    R(velocity)    E-M Angle
         1         0.0000      0.0000      0.0000      0.0000       90.00
         2         0.0000      0.0000      0.0000      0.0000       90.00
         3         0.0000      0.0000      0.0000      0.0000       90.00
         4        -0.0003      0.0000     -0.0003     -0.0002       90.00
         5         0.0000      0.0002      0.0003      0.0002       90.00
         6         0.0000     -0.0001     -0.0001      0.0000       90.00
         7         0.0002     -0.0001      0.0001      0.0000       90.00
         8         0.0000      0.0000      0.0000      0.0000       90.00
         9         0.0000      0.0000      0.0000      0.0000       90.00
        10         0.0000      0.0000      0.0000      0.0000       90.00
        11         0.0000      0.0000      0.0000      0.0000       90.00
        12         0.0000      0.0000      0.0000      0.0000       90.00
 1/2[<0|r|b>*<b|rxdel|0> + (<0|rxdel|b>*<b|r|0>)*]
 Rotatory Strengths (R) in cgs (10**-40 erg-esu-cm/Gauss)
       state          XX          YY          ZZ     R(length)
         1         0.0000      0.0000      0.0000      0.0000
         2         0.0000      0.0000      0.0000      0.0000
         3         0.0000      0.0000      0.0000      0.0000
         4         0.0000     -0.0001      0.0000      0.0000
         5         0.0001      0.0000      0.0000      0.0000
         6        -0.0001      0.0000      0.0000      0.0000
         7        -0.0001      0.0002      0.0000      0.0000
         8         0.0000      0.0000      0.0000      0.0000
         9         0.0001     -0.0001      0.0000      0.0000
        10         0.0000      0.0000      0.0000      0.0000
        11         0.0000      0.0000      0.0000      0.0000
        12         0.0000      0.0000      0.0000      0.0000
  1/2[<0|del|b>*<b|r|0> + (<0|r|b>*<b|del|0>)*] (Au)
       state          X           Y           Z        Dip. S.   Osc.(frdel)
         1         0.0000      0.0000      0.0000      0.0000      0.0000
         2         0.0000      0.0000      0.0000      0.0000      0.0000
         3         0.0000      0.0000      0.0000      0.0000      0.0000
         4        -0.0005     -0.0321      0.0000      0.0326      0.0217
         5        -0.0321     -0.0005      0.0000      0.0326      0.0217
         6         0.0000      0.0000      0.0000      0.0000      0.0000
         7         0.0000      0.0000      0.0000      0.0000      0.0000
         8        -0.0373     -0.0302      0.0000      0.0675      0.0450
         9        -0.0302     -0.0373      0.0000      0.0675      0.0450
        10         0.0000      0.0000      0.3423     -0.3423     -0.2282
        11         0.0000      0.0000      0.0000      0.0000      0.0000
        12         0.0000      0.0000      0.0000      0.0000      0.0000

 Excitation energies and oscillator strengths:
 
 Excited state symmetry could not be determined.
 Excited State   1:  4.996-?Sym    -1.7758 eV    -698.20 nm  f=-0.0000  <S**2>=5.989
     21A -> 23A        0.31908
     21A -> 24A        0.62964
     22A -> 23A        0.62964
     22A -> 24A       -0.31908
 This state for optimization and/or second-order correction.
 Total Energy, E(CIS) =  -1299.32328215    
 Copying the excited state density for this state as the 1-particle RhoCI density.
 
 Excited state symmetry could not be determined.
 Excited State   2:  4.996-?Sym    -1.7758 eV    -698.20 nm  f=-0.0000  <S**2>=5.989
     21A -> 23A        0.62964
     21A -> 24A       -0.31908
     22A -> 23A       -0.31908
     22A -> 24A       -0.62964
 
 Excited state symmetry could not be determined.
 Excited State   3:  4.995-?Sym    -1.7361 eV    -714.17 nm  f=-0.0000  <S**2>=5.987
     21A -> 24A       -0.70373
     22A -> 23A        0.70373
 
 Excited state symmetry could not be determined.
 Excited State   4:  5.124-?Sym    1.3267 eV  934.56 nm  f=0.0032  <S**2>=6.313
     16A -> 27A        0.10145
     19A -> 23A        0.92427
     20A -> 26A       -0.20095
     20A -> 27A       -0.22474
     20A -> 30A       -0.12464
 
 Excited state symmetry could not be determined.
 Excited State   5:  5.124-?Sym    1.3267 eV  934.56 nm  f=0.0032  <S**2>=6.313
     16A -> 26A       -0.10145
     19A -> 24A        0.92427
     20A -> 26A        0.22474
     20A -> 27A       -0.20095
     20A -> 31A       -0.12464
 
 Excited state symmetry could not be determined.
 Excited State   6:  5.065-?Sym    2.1394 eV  579.53 nm  f=0.0000  <S**2>=6.162
     16A -> 23A       -0.17149
     16A -> 24A        0.16367
     19A -> 26A       -0.38078
     19A -> 30A       -0.11804
     20A -> 23A        0.63073
     20A -> 24A       -0.60195
 
 Excited state symmetry could not be determined.
 Excited State   7:  5.065-?Sym    2.1394 eV  579.53 nm  f=0.0000  <S**2>=6.162
     16A -> 23A       -0.16367
     16A -> 24A       -0.17149
     19A -> 27A       -0.38078
     19A -> 31A       -0.11804
     20A -> 23A        0.60195
     20A -> 24A        0.63073
 
 Excited state symmetry could not be determined.
 Excited State   8:  5.335-?Sym    2.2329 eV  555.25 nm  f=0.0883  <S**2>=6.866
     21A -> 25A       -0.47810
     21A -> 29A        0.12087
     22A -> 25A        0.84058
     22A -> 29A       -0.21251
 
 Excited state symmetry could not be determined.
 Excited State   9:  5.335-?Sym    2.2329 eV  555.25 nm  f=0.0883  <S**2>=6.866
     21A -> 25A        0.84058
     21A -> 29A       -0.21251
     22A -> 25A        0.47810
     22A -> 29A       -0.12087
 
 Excited state symmetry could not be determined.
 Excited State  10:  5.036-?Sym    3.2416 eV  382.48 nm  f=0.7740  <S**2>=6.091
     19A -> 25A       -0.24743
     19A -> 29A        0.17810
     21A -> 23A        0.65383
     22A -> 24A        0.65383
 
 Excited state symmetry could not be determined.
 Excited State  11:  5.248-?Sym    3.8578 eV  321.39 nm  f=0.0000  <S**2>=6.636
     21A -> 26A       -0.44953
     21A -> 27A       -0.52295
     21A -> 30A       -0.13183
     22A -> 26A       -0.52295
     22A -> 27A        0.44953
     22A -> 31A        0.13183
 
 Excited state symmetry could not be determined.
 Excited State  12:  5.248-?Sym    3.8578 eV  321.39 nm  f=0.0000  <S**2>=6.636
     21A -> 26A       -0.52295
     21A -> 27A        0.44953
     21A -> 31A        0.13183
     22A -> 26A        0.44953
     22A -> 27A        0.52295
     22A -> 30A        0.13183
 SavETr:  write IOETrn=   770 NScale= 10 NData=  16 NLR=1 NState=   12 LETran=     226.
 Leave Link  914 at Wed Oct 28 10:10:44 2015, MaxMem=    33554432 cpu:               0.7 elap:               0.7
 (Enter /home/gauss/gdvi03p/gdv/l601.exe)
 Copying SCF densities to generalized density rwf, IOpCl= 1 IROHF=0.

 **********************************************************************

            Population analysis using the SCF density.

 **********************************************************************

 Alpha  occ. eigenvalues -- -240.61332 -29.27700 -24.98317 -24.98317 -24.97724
 Alpha  occ. eigenvalues --  -20.62795 -20.62793  -4.09752  -2.80377  -2.80377
 Alpha  occ. eigenvalues --   -2.80239  -1.17108  -1.13913  -0.70844  -0.70844
 Alpha  occ. eigenvalues --   -0.69612  -0.69257  -0.69257  -0.50508  -0.49852
 Alpha  occ. eigenvalues --   -0.26391  -0.26391
 Alpha virt. eigenvalues --   -0.02340  -0.02340   0.02770   0.09554   0.09554
 Alpha virt. eigenvalues --    0.12072   0.24069   0.34564   0.34564   0.70456
 Alpha virt. eigenvalues --    0.93293   1.19783   1.19783   1.24609   1.31252
 Alpha virt. eigenvalues --    1.31252   1.32608   1.49949   1.49949   1.53859
 Alpha virt. eigenvalues --    1.66040   1.66040   2.07871   2.10602  16.84240
  Beta  occ. eigenvalues -- -240.60889 -29.14858 -24.85787 -24.85367 -24.85367
  Beta  occ. eigenvalues --  -20.69254 -20.69250  -3.70015  -2.33506  -2.31998
  Beta  occ. eigenvalues --   -2.31998  -1.39789  -1.38337  -0.65809  -0.65809
  Beta  occ. eigenvalues --   -0.65308  -0.65308  -0.64777  -0.60479
  Beta virt. eigenvalues --    0.02181   0.06896   0.06896   0.12506   0.20076
  Beta virt. eigenvalues --    0.26238   0.26238   0.26947   0.26947   0.40606
  Beta virt. eigenvalues --    0.42803   0.42803   0.73890   1.01705   1.07752
  Beta virt. eigenvalues --    1.07752   1.16880   1.16880   1.19899   1.27685
  Beta virt. eigenvalues --    1.50799   1.76461   1.76461   1.86797   1.86797
  Beta virt. eigenvalues --    2.07017   2.23859  16.93844
          Condensed to atoms (all electrons):
               1          2          3
     1  Mn  23.747441   0.216485   0.216485
     2  O    0.216485   8.194853  -0.001543
     3  O    0.216485  -0.001543   8.194853
          Atomic-Atomic Spin Densities.
               1          2          3
     1  Mn   5.535348   0.153909   0.153909
     2  O    0.153909  -1.575310  -0.000183
     3  O    0.153909  -0.000183  -1.575310
 Mulliken charges and spin densities:
               1          2
     1  Mn   0.819589   5.843167
     2  O   -0.409794  -1.421583
     3  O   -0.409794  -1.421583
 Sum of Mulliken charges =   0.00000   3.00000
 Mulliken charges and spin densities with hydrogens summed into heavy atoms:
               1          2
     1  Mn   0.819589   5.843167
     2  O   -0.409794  -1.421583
     3  O   -0.409794  -1.421583
 Electronic spatial extent (au):  <R**2>=            262.8531
 Charge=              0.0000 electrons
 Dipole moment (field-independent basis, Debye):
    X=              0.0000    Y=              0.0000    Z=              0.0000  Tot=              0.0000
 Quadrupole moment (field-independent basis, Debye-Ang):
   XX=            -26.5955   YY=            -26.5955   ZZ=            -40.0184
   XY=              0.0000   XZ=              0.0000   YZ=              0.0000
 Traceless Quadrupole moment (field-independent basis, Debye-Ang):
   XX=              4.4743   YY=              4.4743   ZZ=             -8.9486
   XY=              0.0000   XZ=              0.0000   YZ=              0.0000
 Octapole moment (field-independent basis, Debye-Ang**2):
  XXX=              0.0000  YYY=              0.0000  ZZZ=              0.0000  XYY=              0.0000
  XXY=              0.0000  XXZ=              0.0000  XZZ=              0.0000  YZZ=              0.0000
  YYZ=              0.0000  XYZ=              0.0000
 Hexadecapole moment (field-independent basis, Debye-Ang**3):
 XXXX=            -49.7517 YYYY=            -49.7517 ZZZZ=           -328.4995 XXXY=              0.0000
 XXXZ=              0.0000 YYYX=              0.0000 YYYZ=              0.0000 ZZZX=              0.0000
 ZZZY=              0.0000 XXYY=            -16.5839 XXZZ=            -52.0647 YYZZ=            -52.0647
 XXYZ=              0.0000 YYXZ=              0.0000 ZZXY=              0.0000
 N-N= 1.242059643306D+02 E-N=-3.336818208001D+03  KE= 1.298866297663D+03
 Leave Link  601 at Wed Oct 28 10:10:44 2015, MaxMem=    33554432 cpu:               0.0 elap:               0.0
 (Enter /home/gauss/gdvi03p/gdv/l9999.exe)
 Unable to Open any file for archive entry.
 1\1\GINC-MEDUSA\SP\UCIS-Full\6-31G\Mn1O2(4)\PLESTRAN\28-Oct-2015\0\\#p
  uhf/6-31G nosymm cis(full,nstates=12)\\MnO2 6-31G\\0,4\Mn,0,0.,0.,0.\
 O,0,0.,0.,1.840528\O,0,0.,0.,-1.840528\\Version=ES64L-GDVRevI.03+\HF=-
 1299.2580237\MP2=-1299.6805445\PUHF=-1299.3116071\PMP2-0=-1299.7332241
 \EFC=0.\S2=6.133002\S2-1=5.951544\S2A=7.50318\RMSD=2.531e-09\PG=D*H [O
 (Mn1),C*(O1.O1)]\\@
 The archive entry for this job was punched.


 LOVE IS BLIND, THAT'S WHY ALL THE WORLD LOVES A LOUVER.
 Job cpu time:       0 days  0 hours  0 minutes  3.3 seconds.
 Elapsed time:       0 days  0 hours  0 minutes  3.1 seconds.
 File lengths (MBytes):  RWF=     49 Int=      0 D2E=      0 Chk=      3 Scr=      1
 Normal termination of Gaussian DV at Wed Oct 28 10:10:44 2015.
