 Entering Gaussian System, Link 0=gdv
 Input=MnO2_3-21G.com
 Output=MnO2_3-21G.log
 Initial command:
 /home/gauss/gdvi01p/gdv/l1.exe "/home/GauScr/Gau-32718.inp" -scrdir="/home/GauScr/"
 Entering Link 1 = /home/gauss/gdvi01p/gdv/l1.exe PID=     32719.
  
 Copyright (c) 1988,1990,1992,1993,1995,1998,2003,2009,2014,
            Gaussian, Inc.  All Rights Reserved.
  
 This is the private, development version of
 the Gaussian(R) DV system of programs. It is based on
 the Gaussian(R) 09 system (copyright 2009, Gaussian, Inc.),
 the Gaussian(R) 03 system (copyright 2003, Gaussian, Inc.),
 the Gaussian(R) 98 system (copyright 1998, Gaussian, Inc.),
 the Gaussian(R) 94 system (copyright 1995, Gaussian, Inc.),
 the Gaussian 92(TM) system (copyright 1992, Gaussian, Inc.),
 the Gaussian 90(TM) system (copyright 1990, Gaussian, Inc.),
 the Gaussian 88(TM) system (copyright 1988, Gaussian, Inc.),
 the Gaussian 86(TM) system (copyright 1986, Carnegie Mellon
 University), and the Gaussian 82(TM) system (copyright 1983,
 Carnegie Mellon University). Gaussian is a federally registered
 trademark of Gaussian, Inc.
  
 This software contains proprietary and confidential information,
 including trade secrets, belonging to Gaussian, Inc.
  
 This software is provided under written license and may be
 used, copied, transmitted, or stored only in accord with that
 written license.
  
 The following legend is applicable only to US Government
 contracts under FAR:
  
                    RESTRICTED RIGHTS LEGEND
  
 Use, reproduction and disclosure by the US Government is
 subject to restrictions as set forth in subparagraphs (a)
 and (c) of the Commercial Computer Software - Restricted
 Rights clause in FAR 52.227-19.
  
 Gaussian, Inc.
 340 Quinnipiac St., Bldg. 40, Wallingford CT 06492
  
  
 ---------------------------------------------------------------
 Warning -- This program may not be used in any manner that
 competes with the business of Gaussian, Inc. or will provide
 assistance to any competitor of Gaussian, Inc.  The licensee
 of this program is prohibited from giving any competitor of
 Gaussian, Inc. access to this program.  By using this program,
 the user acknowledges that Gaussian, Inc. is engaged in the
 business of creating and licensing software in the field of
 computational chemistry and represents and warrants to the
 licensee that it is not a competitor of Gaussian, Inc. and that
 it will not use this program in any manner prohibited above.
 ---------------------------------------------------------------
  

 Cite this work as:
 Gaussian Development Version, Revision I.01+,
 M. J. Frisch, G. W. Trucks, H. B. Schlegel, G. E. Scuseria, 
 M. A. Robb, J. R. Cheeseman, G. Scalmani, V. Barone, B. Mennucci, 
 G. A. Petersson, H. Nakatsuji, M. Caricato, X. Li, H. P. Hratchian, 
 A. F. Izmaylov, J. Bloino, B. G. Janesko, F. Lipparini, G. Zheng, 
 J. L. Sonnenberg, W. Liang, M. Hada, M. Ehara, K. Toyota, R. Fukuda, 
 J. Hasegawa, M. Ishida, T. Nakajima, Y. Honda, O. Kitao, H. Nakai, 
 T. Vreven, J. A. Montgomery, Jr., J. E. Peralta, F. Ogliaro, 
 M. Bearpark, J. J. Heyd, E. Brothers, K. N. Kudin, V. N. Staroverov, 
 T. Keith, R. Kobayashi, J. Normand, K. Raghavachari, A. Rendell, 
 J. C. Burant, S. S. Iyengar, J. Tomasi, M. Cossi, N. Rega, 
 J. M. Millam, M. Klene, J. E. Knox, J. B. Cross, V. Bakken, 
 C. Adamo, J. Jaramillo, R. Gomperts, R. E. Stratmann, O. Yazyev, 
 A. J. Austin, R. Cammi, C. Pomelli, J. W. Ochterski, R. L. Martin, 
 K. Morokuma, V. G. Zakrzewski, G. A. Voth, P. Salvador, 
 J. J. Dannenberg, S. Dapprich, P. V. Parandekar, N. J. Mayhall, 
 A. D. Daniels, O. Farkas, J. B. Foresman, J. V. Ortiz, 
 J. Cioslowski, and D. J. Fox, Gaussian, Inc., Wallingford CT, 2010.
 
 *******************************************
 Gaussian DV:  ES64L-GDVRevI.01+ 11-Sep-2014
                 22-Sep-2015 
 *******************************************
 -------------------
 #p uhf/3-21G nosymm
 -------------------
 1/38=1,172=1/1;
 2/12=2,15=1,17=6,18=5,40=1/2;
 3/5=5,11=2,25=1,30=1,116=2/1,2,3;
 4//1;
 5/5=2,38=5/2;
 6/7=2,8=2,9=2,10=2,28=1/1;
 99/5=1,9=1/99;
 Leave Link    1 at Tue Sep 22 13:39:24 2015, MaxMem=           0 cpu:               0.0 elap:               0.0
 (Enter /home/gauss/gdvi01p/gdv/l101.exe)
 ----------
 MnO2 3-21G
 ----------
 Symbolic Z-matrix:
 Charge =  0 Multiplicity = 4
 Mn                    0.        0.        0. 
 O                     0.        0.        1.84053 
 O                     0.        0.       -1.84053 
 
 ITRead=  0  0  0
 MicOpt= -1 -1 -1
 NAtoms=      3 NQM=        3 NQMF=       0 NMMI=      0 NMMIF=      0
                NMic=       0 NMicF=      0.
                    Isotopes and Nuclear Properties:
 (Nuclear quadrupole moments (NQMom) in fm**2, nuclear magnetic moments (NMagM)
  in nuclear magnetons)

  Atom         1           2           3
 IAtWgt=          55          16          16
 AtmWgt=  54.9380463  15.9949146  15.9949146
 NucSpn=           5           0           0
 AtZEff=   0.0000000   0.0000000   0.0000000
 NQMom=   33.0000000   0.0000000   0.0000000
 NMagM=    3.4532000   0.0000000   0.0000000
 AtZNuc=  25.0000000   8.0000000   8.0000000
 Leave Link  101 at Tue Sep 22 13:39:24 2015, MaxMem=    33554432 cpu:               0.1 elap:               0.1
 (Enter /home/gauss/gdvi01p/gdv/l202.exe)
                          Input orientation:                          
 ---------------------------------------------------------------------
 Center     Atomic      Atomic             Coordinates (Angstroms)
 Number     Number       Type             X           Y           Z
 ---------------------------------------------------------------------
      1         25           0        0.000000    0.000000    0.000000
      2          8           0        0.000000    0.000000    1.840528
      3          8           0        0.000000    0.000000   -1.840528
 ---------------------------------------------------------------------
                    Distance matrix (angstroms):
                    1          2          3
     1  Mn   0.000000
     2  O    1.840528   0.000000
     3  O    1.840528   3.681056   0.000000
 Symmetry turned off by external request.
 Stoichiometry    MnO2(4)
 Framework group  D*H[O(Mn),C*(O.O)]
 Deg. of freedom     1
 Full point group                 D*H     NOp   8
 Rotational constants (GHZ):      0.0000000      4.6635906      4.6635906
 Leave Link  202 at Tue Sep 22 13:39:24 2015, MaxMem=    33554432 cpu:               0.0 elap:               0.0
 (Enter /home/gauss/gdvi01p/gdv/l301.exe)
 Standard basis: 3-21G (6D, 7F)
 Ernie: Thresh=  0.10000D-02 Tol=  0.10000D-05 Strict=F.
    47 basis functions,    87 primitive gaussians,    47 cartesian basis functions
    22 alpha electrons       19 beta electrons
       nuclear repulsion energy       124.2059643306 Hartrees.
 IExCor=    0 DFT=F Ex=HF Corr=None ExCW=0 ScaHFX=  1.000000
 ScaDFX=  1.000000  1.000000  1.000000  1.000000 ScalE2=  1.000000  1.000000
 IRadAn=      0 IRanWt=     -1 IRanGd=            0 ICorTp=0 IEmpDi=  4
 NAtoms=    3 NActive=    3 NUniq=    3 SFac= 1.00D+00 NAtFMM=   60 NAOKFM=F Big=F
 Integral buffers will be    131072 words long.
 Raffenetti 2 integral format.
 Two-electron integral symmetry is turned off.
 Leave Link  301 at Tue Sep 22 13:39:24 2015, MaxMem=    33554432 cpu:               0.0 elap:               0.1
 (Enter /home/gauss/gdvi01p/gdv/l302.exe)
 NPDir=0 NMtPBC=     1 NCelOv=     1 NCel=       1 NClECP=     1 NCelD=      1
         NCelK=      1 NCelE2=     1 NClLst=     1 CellRange=     0.0.
 One-electron integrals computed using PRISM.
 One-electron integral symmetry used in STVInt
 NBasis=    47 RedAO= T EigKep=  4.42D-03  NBF=    47
 NBsUse=    47 1.00D-06 EigRej= -1.00D+00 NBFU=    47
 Leave Link  302 at Tue Sep 22 13:39:24 2015, MaxMem=    33554432 cpu:               0.1 elap:               0.1
 (Enter /home/gauss/gdvi01p/gdv/l303.exe)
 DipDrv:  MaxL=1.
 Leave Link  303 at Tue Sep 22 13:39:24 2015, MaxMem=    33554432 cpu:               0.0 elap:               0.0
 (Enter /home/gauss/gdvi01p/gdv/l401.exe)
 ExpMin= 3.33D-02 ExpMax= 3.04D+03 ExpMxC= 3.04D+03 IAcc=3 IRadAn=         5 AccDes= 0.00D+00
 Harris functional with IExCor=  205 and IRadAn=       5 diagonalized for initial guess.
 HarFok:  IExCor=  205 AccDes= 0.00D+00 IRadAn=         5 IDoV= 1 UseB2=F ITyADJ=14
 ICtDFT=  3500011 ScaDFX=  1.000000  1.000000  1.000000  1.000000
 FoFCou: FMM=F IPFlag=           0 FMFlag=      100000 FMFlg1=           0
         NFxFlg=           0 DoJE=T BraDBF=F KetDBF=T FulRan=T
         wScrn=  0.000000 ICntrl=       500 IOpCl=  0 I1Cent=   200000004 NGrid=           0
         NMat0=    1 NMatS0=      1 NMatT0=    0 NMatD0=    1 NMtDS0=    0 NMtDT0=    0
 Symmetry not used in FoFCou.
 Harris En= -1292.63885149669    
 JPrj=0 DoOrth=F DoCkMO=F.
 Initial guess <Sx>= 0.0000 <Sy>= 0.0000 <Sz>= 1.5000 <S**2>= 3.7500 S= 1.5000
 Leave Link  401 at Tue Sep 22 13:39:25 2015, MaxMem=    33554432 cpu:               0.3 elap:               0.3
 (Enter /home/gauss/gdvi01p/gdv/l502.exe)
 Keep R1 and R2 ints in memory in canonical form, NReq=2101006.
 FoFCou: FMM=F IPFlag=           0 FMFlag=           0 FMFlg1=           0
         NFxFlg=           0 DoJE=F BraDBF=F KetDBF=F FulRan=T
         wScrn=  0.000000 ICntrl=       600 IOpCl=  0 I1Cent=           0 NGrid=           0
         NMat0=    1 NMatS0=   1128 NMatT0=    0 NMatD0=    1 NMtDS0=    0 NMtDT0=    0
 Symmetry not used in FoFCou.
 Two-electron integral symmetry not used.
 UHF open shell SCF:
 Using DIIS extrapolation, IDIIS=  1040.
 NGot=    33554432 LenX=    32275732 LenY=    32273082
 Requested convergence on RMS density matrix=1.00D-08 within 128 cycles.
 Requested convergence on MAX density matrix=1.00D-06.
 Requested convergence on             energy=1.00D-06.
 No special actions if energy rises.

 Cycle   1  Pass 1  IDiag  1:
 E= -1291.47226822033    
 DIIS: error= 2.17D-01 at cycle   1 NSaved=   1.
 NSaved= 1 IEnMin= 1 EnMin= -1291.47226822033     IErMin= 1 ErrMin= 2.17D-01
 ErrMax= 2.17D-01  0.00D+00 EMaxC= 1.00D-01 BMatC= 6.63D+00 BMatP= 6.63D+00
 IDIUse=3 WtCom= 0.00D+00 WtEn= 1.00D+00
 Coeff-Com:  0.100D+01
 Coeff-En:   0.100D+01
 Coeff:      0.100D+01
 Gap=     0.884 Goal=   None    Shift=    0.000
 Gap=    -0.312 Goal=   None    Shift=    0.000
 GapD=   -0.312 DampG=0.250 DampE=0.125 DampFc=0.1250 IDamp=-1.
 Damping current iteration by 1.25D-01
 RMSDP=5.18D-02 MaxDP=7.21D-01              OVMax= 9.96D-01

 Cycle   2  Pass 1  IDiag  1:
 E= -1291.89778191176     Delta-E=       -0.425513691430 Rises=F Damp=T
 DIIS: error= 9.58D-02 at cycle   2 NSaved=   2.
 NSaved= 2 IEnMin= 2 EnMin= -1291.89778191176     IErMin= 2 ErrMin= 9.58D-02
 ErrMax= 9.58D-02  0.00D+00 EMaxC= 1.00D-01 BMatC= 2.16D+00 BMatP= 6.63D+00
 IDIUse=3 WtCom= 4.23D-02 WtEn= 9.58D-01
 Coeff-Com: -0.996D+00 0.200D+01
 Coeff-En:   0.000D+00 0.100D+01
 Coeff:     -0.421D-01 0.104D+01
 Gap=     0.132 Goal=   None    Shift=    0.000
 Gap=     0.009 Goal=   None    Shift=    0.000
 RMSDP=3.18D-02 MaxDP=3.21D-01 DE=-4.26D-01 OVMax= 9.92D-01

 Cycle   3  Pass 1  IDiag  1:
 E= -1286.86581582724     Delta-E=        5.031966084515 Rises=F Damp=F
 DIIS: error= 5.66D-01 at cycle   3 NSaved=   3.
 NSaved= 3 IEnMin= 2 EnMin= -1291.89778191176     IErMin= 2 ErrMin= 9.58D-02
 ErrMax= 5.66D-01  0.00D+00 EMaxC= 1.00D-01 BMatC= 3.34D+01 BMatP= 2.16D+00
 IDIUse=2 WtCom= 0.00D+00 WtEn= 1.00D+00
 EnCoef did   100 forward-backward iterations
 Coeff-En:   0.711D+00 0.390D-01 0.250D+00
 Coeff:      0.711D+00 0.390D-01 0.250D+00
 Gap=     0.202 Goal=   None    Shift=    0.000
 Gap=     0.095 Goal=   None    Shift=    0.000
 RMSDP=2.70D-02 MaxDP=3.58D-01 DE= 5.03D+00 OVMax= 9.99D-01

 Cycle   4  Pass 1  IDiag  1:
 E= -1292.68971343962     Delta-E=       -5.823897612375 Rises=F Damp=F
 DIIS: error= 7.49D-02 at cycle   4 NSaved=   4.
 NSaved= 4 IEnMin= 4 EnMin= -1292.68971343962     IErMin= 4 ErrMin= 7.49D-02
 ErrMax= 7.49D-02  0.00D+00 EMaxC= 1.00D-01 BMatC= 4.45D-01 BMatP= 2.16D+00
 IDIUse=3 WtCom= 2.51D-01 WtEn= 7.49D-01
 Coeff-Com:  0.608D-01 0.969D-01-0.473D-01 0.890D+00
 Coeff-En:   0.171D-02 0.000D+00 0.000D+00 0.998D+00
 Coeff:      0.165D-01 0.243D-01-0.119D-01 0.971D+00
 Gap=     0.400 Goal=   None    Shift=    0.000
 Gap=     0.724 Goal=   None    Shift=    0.000
 RMSDP=8.61D-03 MaxDP=1.18D-01 DE=-5.82D+00 OVMax= 2.35D-01

 Cycle   5  Pass 1  IDiag  1:
 E= -1292.62323002981     Delta-E=        0.066483409810 Rises=F Damp=F
 DIIS: error= 1.13D-01 at cycle   5 NSaved=   5.
 NSaved= 5 IEnMin= 4 EnMin= -1292.68971343962     IErMin= 4 ErrMin= 7.49D-02
 ErrMax= 1.13D-01  0.00D+00 EMaxC= 1.00D-01 BMatC= 8.90D-01 BMatP= 4.45D-01
 IDIUse=2 WtCom= 0.00D+00 WtEn= 1.00D+00
 Coeff-En:   0.000D+00 0.000D+00 0.000D+00 0.616D+00 0.384D+00
 Coeff:      0.000D+00 0.000D+00 0.000D+00 0.616D+00 0.384D+00
 Gap=     0.304 Goal=   None    Shift=    0.000
 Gap=     0.400 Goal=   None    Shift=    0.000
 RMSDP=5.25D-03 MaxDP=5.89D-02 DE= 6.65D-02 OVMax= 1.70D-01

 Cycle   6  Pass 1  IDiag  1:
 E= -1292.80125059189     Delta-E=       -0.178020562081 Rises=F Damp=F
 DIIS: error= 2.26D-02 at cycle   6 NSaved=   6.
 NSaved= 6 IEnMin= 6 EnMin= -1292.80125059189     IErMin= 6 ErrMin= 2.26D-02
 ErrMax= 2.26D-02  0.00D+00 EMaxC= 1.00D-01 BMatC= 2.59D-02 BMatP= 4.45D-01
 IDIUse=3 WtCom= 7.74D-01 WtEn= 2.26D-01
 Coeff-Com: -0.246D+00 0.300D+00-0.113D-01 0.300D+00 0.387D+00 0.270D+00
 Coeff-En:   0.000D+00 0.000D+00 0.000D+00 0.000D+00 0.000D+00 0.100D+01
 Coeff:     -0.190D+00 0.232D+00-0.876D-02 0.233D+00 0.300D+00 0.435D+00
 Gap=     0.312 Goal=   None    Shift=    0.000
 Gap=     0.397 Goal=   None    Shift=    0.000
 RMSDP=1.76D-03 MaxDP=2.12D-02 DE=-1.78D-01 OVMax= 6.76D-02

 Cycle   7  Pass 1  IDiag  1:
 E= -1292.81889470249     Delta-E=       -0.017644110606 Rises=F Damp=F
 DIIS: error= 4.50D-02 at cycle   7 NSaved=   7.
 NSaved= 7 IEnMin= 7 EnMin= -1292.81889470249     IErMin= 6 ErrMin= 2.26D-02
 ErrMax= 4.50D-02  0.00D+00 EMaxC= 1.00D-01 BMatC= 5.13D-02 BMatP= 2.59D-02
 IDIUse=2 WtCom= 0.00D+00 WtEn= 1.00D+00
 Coeff-En:   0.000D+00 0.000D+00 0.000D+00 0.000D+00 0.000D+00 0.000D+00
 Coeff-En:   0.100D+01
 Coeff:      0.000D+00 0.000D+00 0.000D+00 0.000D+00 0.000D+00 0.000D+00
 Coeff:      0.100D+01
 Gap=     0.246 Goal=   None    Shift=    0.000
 Gap=     0.409 Goal=   None    Shift=    0.000
 RMSDP=4.78D-03 MaxDP=7.38D-02 DE=-1.76D-02 OVMax= 2.00D-01

 Cycle   8  Pass 1  IDiag  1:
 E= -1292.87082915903     Delta-E=       -0.051934456537 Rises=F Damp=F
 DIIS: error= 6.96D-02 at cycle   8 NSaved=   8.
 NSaved= 8 IEnMin= 8 EnMin= -1292.87082915903     IErMin= 6 ErrMin= 2.26D-02
 ErrMax= 6.96D-02  0.00D+00 EMaxC= 1.00D-01 BMatC= 1.90D-01 BMatP= 2.59D-02
 IDIUse=2 WtCom= 0.00D+00 WtEn= 1.00D+00
 Coeff-En:   0.000D+00 0.000D+00 0.000D+00 0.000D+00 0.000D+00 0.000D+00
 Coeff-En:   0.000D+00 0.100D+01
 Coeff:      0.000D+00 0.000D+00 0.000D+00 0.000D+00 0.000D+00 0.000D+00
 Coeff:      0.000D+00 0.100D+01
 Gap=     0.284 Goal=   None    Shift=    0.000
 Gap=     0.558 Goal=   None    Shift=    0.000
 RMSDP=5.67D-03 MaxDP=4.64D-02 DE=-5.19D-02 OVMax= 1.88D-01

 Cycle   9  Pass 1  IDiag  1:
 E= -1292.92929286671     Delta-E=       -0.058463707681 Rises=F Damp=F
 DIIS: error= 7.95D-02 at cycle   9 NSaved=   9.
 NSaved= 9 IEnMin= 9 EnMin= -1292.92929286671     IErMin= 6 ErrMin= 2.26D-02
 ErrMax= 7.95D-02  0.00D+00 EMaxC= 1.00D-01 BMatC= 2.25D-01 BMatP= 2.59D-02
 IDIUse=2 WtCom= 0.00D+00 WtEn= 1.00D+00
 Coeff-En:   0.000D+00 0.000D+00 0.000D+00 0.000D+00 0.000D+00 0.000D+00
 Coeff-En:   0.000D+00 0.000D+00 0.100D+01
 Coeff:      0.000D+00 0.000D+00 0.000D+00 0.000D+00 0.000D+00 0.000D+00
 Coeff:      0.000D+00 0.000D+00 0.100D+01
 Gap=     0.203 Goal=   None    Shift=    0.000
 Gap=     0.450 Goal=   None    Shift=    0.000
 RMSDP=7.28D-03 MaxDP=9.89D-02 DE=-5.85D-02 OVMax= 2.54D-01

 Cycle  10  Pass 1  IDiag  1:
 E= -1292.98811903573     Delta-E=       -0.058826169023 Rises=F Damp=F
 DIIS: error= 6.20D-02 at cycle  10 NSaved=  10.
 NSaved=10 IEnMin=10 EnMin= -1292.98811903573     IErMin= 6 ErrMin= 2.26D-02
 ErrMax= 6.20D-02  0.00D+00 EMaxC= 1.00D-01 BMatC= 3.60D-01 BMatP= 2.59D-02
 IDIUse=2 WtCom= 0.00D+00 WtEn= 1.00D+00
 Coeff-En:   0.000D+00 0.000D+00 0.000D+00 0.000D+00 0.000D+00 0.000D+00
 Coeff-En:   0.000D+00 0.000D+00 0.454D-01 0.955D+00
 Coeff:      0.000D+00 0.000D+00 0.000D+00 0.000D+00 0.000D+00 0.000D+00
 Coeff:      0.000D+00 0.000D+00 0.454D-01 0.955D+00
 Gap=     0.250 Goal=   None    Shift=    0.000
 Gap=     0.653 Goal=   None    Shift=    0.000
 RMSDP=6.57D-03 MaxDP=7.50D-02 DE=-5.88D-02 OVMax= 1.17D-01

 Cycle  11  Pass 1  IDiag  1:
 E= -1293.04289433648     Delta-E=       -0.054775300749 Rises=F Damp=F
 DIIS: error= 4.81D-02 at cycle  11 NSaved=  11.
 NSaved=11 IEnMin=11 EnMin= -1293.04289433648     IErMin= 6 ErrMin= 2.26D-02
 ErrMax= 4.81D-02  0.00D+00 EMaxC= 1.00D-01 BMatC= 1.59D-01 BMatP= 2.59D-02
 IDIUse=2 WtCom= 0.00D+00 WtEn= 1.00D+00
 Coeff-En:   0.000D+00 0.000D+00 0.000D+00 0.000D+00 0.000D+00 0.000D+00
 Coeff-En:   0.000D+00 0.000D+00 0.000D+00 0.164D-01 0.984D+00
 Coeff:      0.000D+00 0.000D+00 0.000D+00 0.000D+00 0.000D+00 0.000D+00
 Coeff:      0.000D+00 0.000D+00 0.000D+00 0.164D-01 0.984D+00
 Gap=     0.250 Goal=   None    Shift=    0.000
 Gap=     0.513 Goal=   None    Shift=    0.000
 RMSDP=5.12D-03 MaxDP=9.18D-02 DE=-5.48D-02 OVMax= 1.32D-01

 Cycle  12  Pass 1  IDiag  1:
 E= -1293.07603592090     Delta-E=       -0.033141584412 Rises=F Damp=F
 DIIS: error= 2.34D-02 at cycle  12 NSaved=  12.
 NSaved=12 IEnMin=12 EnMin= -1293.07603592090     IErMin= 6 ErrMin= 2.26D-02
 ErrMax= 2.34D-02  0.00D+00 EMaxC= 1.00D-01 BMatC= 1.16D-01 BMatP= 2.59D-02
 IDIUse=2 WtCom= 0.00D+00 WtEn= 1.00D+00
 Coeff-En:   0.000D+00 0.000D+00 0.000D+00 0.000D+00 0.000D+00 0.000D+00
 Coeff-En:   0.000D+00 0.000D+00 0.000D+00 0.000D+00 0.000D+00 0.100D+01
 Coeff:      0.000D+00 0.000D+00 0.000D+00 0.000D+00 0.000D+00 0.000D+00
 Coeff:      0.000D+00 0.000D+00 0.000D+00 0.000D+00 0.000D+00 0.100D+01
 Gap=     0.251 Goal=   None    Shift=    0.000
 Gap=     0.644 Goal=   None    Shift=    0.000
 RMSDP=3.76D-03 MaxDP=4.10D-02 DE=-3.31D-02 OVMax= 4.28D-02

 Cycle  13  Pass 1  IDiag  1:
 E= -1293.09282965518     Delta-E=       -0.016793734279 Rises=F Damp=F
 DIIS: error= 1.73D-02 at cycle  13 NSaved=  13.
 NSaved=13 IEnMin=13 EnMin= -1293.09282965518     IErMin=13 ErrMin= 1.73D-02
 ErrMax= 1.73D-02  0.00D+00 EMaxC= 1.00D-01 BMatC= 4.03D-02 BMatP= 2.59D-02
 IDIUse=2 WtCom= 0.00D+00 WtEn= 1.00D+00
 Coeff-En:   0.000D+00 0.000D+00 0.000D+00 0.000D+00 0.000D+00 0.000D+00
 Coeff-En:   0.000D+00 0.000D+00 0.000D+00 0.000D+00 0.000D+00 0.000D+00
 Coeff-En:   0.100D+01
 Coeff:      0.000D+00 0.000D+00 0.000D+00 0.000D+00 0.000D+00 0.000D+00
 Coeff:      0.000D+00 0.000D+00 0.000D+00 0.000D+00 0.000D+00 0.000D+00
 Coeff:      0.100D+01
 Gap=     0.270 Goal=   None    Shift=    0.000
 Gap=     0.573 Goal=   None    Shift=    0.000
 RMSDP=2.51D-03 MaxDP=5.04D-02 DE=-1.68D-02 OVMax= 4.81D-02

 Cycle  14  Pass 1  IDiag  1:
 E= -1293.10064651423     Delta-E=       -0.007816859058 Rises=F Damp=F
 DIIS: error= 1.06D-02 at cycle  14 NSaved=  14.
 NSaved=14 IEnMin=14 EnMin= -1293.10064651423     IErMin=14 ErrMin= 1.06D-02
 ErrMax= 1.06D-02  0.00D+00 EMaxC= 1.00D-01 BMatC= 2.43D-02 BMatP= 2.59D-02
 IDIUse=3 WtCom= 8.94D-01 WtEn= 1.06D-01
 Coeff-Com: -0.509D-02 0.673D-02-0.468D-03-0.130D-01-0.423D-01 0.242D+00
 Coeff-Com: -0.156D-01-0.399D+00 0.183D+00 0.708D+00-0.371D+00-0.176D+01
 Coeff-Com:  0.434D+00 0.203D+01
 Coeff-En:   0.000D+00 0.000D+00 0.000D+00 0.000D+00 0.000D+00 0.000D+00
 Coeff-En:   0.000D+00 0.000D+00 0.000D+00 0.000D+00 0.000D+00 0.000D+00
 Coeff-En:   0.000D+00 0.100D+01
 Coeff:     -0.455D-02 0.602D-02-0.419D-03-0.117D-01-0.379D-01 0.216D+00
 Coeff:     -0.140D-01-0.357D+00 0.163D+00 0.633D+00-0.331D+00-0.157D+01
 Coeff:      0.388D+00 0.192D+01
 Gap=     0.264 Goal=   None    Shift=    0.000
 Gap=     0.631 Goal=   None    Shift=    0.000
 RMSDP=1.75D-03 MaxDP=1.90D-02 DE=-7.82D-03 OVMax= 2.19D-02

 Cycle  15  Pass 1  IDiag  1:
 E= -1293.10627134204     Delta-E=       -0.005624827805 Rises=F Damp=F
 DIIS: error= 1.51D-03 at cycle  15 NSaved=  15.
 NSaved=15 IEnMin=15 EnMin= -1293.10627134204     IErMin=15 ErrMin= 1.51D-03
 ErrMax= 1.51D-03  0.00D+00 EMaxC= 1.00D-01 BMatC= 1.85D-04 BMatP= 2.43D-02
 IDIUse=3 WtCom= 9.85D-01 WtEn= 1.51D-02
 Coeff-Com: -0.303D-02 0.352D-02 0.748D-04 0.204D-02 0.239D-02 0.392D-01
 Coeff-Com: -0.202D-01-0.121D+00 0.479D-01 0.199D+00-0.598D-01-0.444D+00
 Coeff-Com: -0.435D-01 0.424D+00 0.973D+00
 Coeff-En:   0.000D+00 0.000D+00 0.000D+00 0.000D+00 0.000D+00 0.000D+00
 Coeff-En:   0.000D+00 0.000D+00 0.000D+00 0.000D+00 0.000D+00 0.000D+00
 Coeff-En:   0.000D+00 0.000D+00 0.100D+01
 Coeff:     -0.299D-02 0.347D-02 0.737D-04 0.201D-02 0.236D-02 0.386D-01
 Coeff:     -0.199D-01-0.119D+00 0.472D-01 0.196D+00-0.589D-01-0.437D+00
 Coeff:     -0.429D-01 0.418D+00 0.973D+00
 Gap=     0.271 Goal=   None    Shift=    0.000
 Gap=     0.638 Goal=   None    Shift=    0.000
 RMSDP=6.31D-04 MaxDP=1.21D-02 DE=-5.62D-03 OVMax= 1.24D-02

 Cycle  16  Pass 1  IDiag  1:
 E= -1293.10648390042     Delta-E=       -0.000212558382 Rises=F Damp=F
 DIIS: error= 8.66D-04 at cycle  16 NSaved=  16.
 NSaved=16 IEnMin=16 EnMin= -1293.10648390042     IErMin=16 ErrMin= 8.66D-04
 ErrMax= 8.66D-04  0.00D+00 EMaxC= 1.00D-01 BMatC= 2.22D-05 BMatP= 1.85D-04
 IDIUse=3 WtCom= 9.91D-01 WtEn= 8.66D-03
 Coeff-Com: -0.324D-03 0.728D-03-0.118D-04-0.365D-02-0.659D-02 0.389D-02
 Coeff-Com: -0.146D-02 0.160D-01 0.286D-01-0.504D-01-0.328D-01 0.192D+00
 Coeff-Com:  0.320D-01-0.265D+00-0.608D-01 0.115D+01
 Coeff-En:   0.000D+00 0.000D+00 0.000D+00 0.000D+00 0.000D+00 0.000D+00
 Coeff-En:   0.000D+00 0.000D+00 0.000D+00 0.000D+00 0.000D+00 0.000D+00
 Coeff-En:   0.000D+00 0.000D+00 0.000D+00 0.100D+01
 Coeff:     -0.321D-03 0.722D-03-0.117D-04-0.362D-02-0.653D-02 0.386D-02
 Coeff:     -0.145D-02 0.159D-01 0.283D-01-0.500D-01-0.325D-01 0.191D+00
 Coeff:      0.317D-01-0.262D+00-0.603D-01 0.115D+01
 Gap=     0.270 Goal=   None    Shift=    0.000
 Gap=     0.637 Goal=   None    Shift=    0.000
 RMSDP=1.75D-04 MaxDP=1.40D-03 DE=-2.13D-04 OVMax= 5.33D-03

 Cycle  17  Pass 1  IDiag  1:
 E= -1293.10650359642     Delta-E=       -0.000019695999 Rises=F Damp=F
 DIIS: error= 2.77D-04 at cycle  17 NSaved=  17.
 NSaved=17 IEnMin=17 EnMin= -1293.10650359642     IErMin=17 ErrMin= 2.77D-04
 ErrMax= 2.77D-04  0.00D+00 EMaxC= 1.00D-01 BMatC= 6.38D-06 BMatP= 2.22D-05
 IDIUse=3 WtCom= 9.97D-01 WtEn= 2.77D-03
 Coeff-Com:  0.694D-03-0.823D-03 0.128D-04-0.257D-04-0.373D-02 0.550D-02
 Coeff-Com:  0.268D-02-0.784D-02 0.258D-02 0.105D-01 0.532D-03-0.438D-01
 Coeff-Com:  0.493D-02 0.583D-01-0.107D+00 0.522D-01 0.103D+01
 Coeff-En:   0.000D+00 0.000D+00 0.000D+00 0.000D+00 0.000D+00 0.000D+00
 Coeff-En:   0.000D+00 0.000D+00 0.000D+00 0.000D+00 0.000D+00 0.000D+00
 Coeff-En:   0.000D+00 0.000D+00 0.000D+00 0.000D+00 0.100D+01
 Coeff:      0.692D-03-0.821D-03 0.128D-04-0.257D-04-0.372D-02 0.548D-02
 Coeff:      0.267D-02-0.782D-02 0.257D-02 0.105D-01 0.531D-03-0.437D-01
 Coeff:      0.492D-02 0.581D-01-0.106D+00 0.521D-01 0.102D+01
 Gap=     0.270 Goal=   None    Shift=    0.000
 Gap=     0.637 Goal=   None    Shift=    0.000
 RMSDP=4.46D-05 MaxDP=6.48D-04 DE=-1.97D-05 OVMax= 6.38D-04

 Cycle  18  Pass 1  IDiag  1:
 E= -1293.10650635986     Delta-E=       -0.000002763440 Rises=F Damp=F
 DIIS: error= 2.86D-05 at cycle  18 NSaved=  18.
 NSaved=18 IEnMin=18 EnMin= -1293.10650635986     IErMin=18 ErrMin= 2.86D-05
 ErrMax= 2.86D-05  0.00D+00 EMaxC= 1.00D-01 BMatC= 4.60D-08 BMatP= 6.38D-06
 IDIUse=1 WtCom= 1.00D+00 WtEn= 0.00D+00
 Coeff-Com: -0.695D-04 0.804D-04 0.413D-05 0.255D-04 0.218D-03 0.411D-03
 Coeff-Com: -0.211D-04-0.121D-02-0.168D-02 0.175D-02 0.186D-02-0.433D-02
 Coeff-Com: -0.164D-02 0.585D-02 0.145D-02-0.409D-01-0.998D-01 0.114D+01
 Coeff:     -0.695D-04 0.804D-04 0.413D-05 0.255D-04 0.218D-03 0.411D-03
 Coeff:     -0.211D-04-0.121D-02-0.168D-02 0.175D-02 0.186D-02-0.433D-02
 Coeff:     -0.164D-02 0.585D-02 0.145D-02-0.409D-01-0.998D-01 0.114D+01
 Gap=     0.271 Goal=   None    Shift=    0.000
 Gap=     0.637 Goal=   None    Shift=    0.000
 RMSDP=9.41D-06 MaxDP=1.81D-04 DE=-2.76D-06 OVMax= 1.75D-04

 Cycle  19  Pass 1  IDiag  1:
 E= -1293.10650638932     Delta-E=       -0.000000029459 Rises=F Damp=F
 DIIS: error= 2.40D-05 at cycle  19 NSaved=  19.
 NSaved=19 IEnMin=19 EnMin= -1293.10650638932     IErMin=19 ErrMin= 2.40D-05
 ErrMax= 2.40D-05  0.00D+00 EMaxC= 1.00D-01 BMatC= 4.34D-08 BMatP= 4.60D-08
 IDIUse=1 WtCom= 1.00D+00 WtEn= 0.00D+00
 Coeff-Com: -0.239D-04 0.221D-04 0.660D-06-0.620D-04-0.113D-04-0.905D-04
 Coeff-Com:  0.283D-03-0.209D-03-0.138D-04 0.114D-02 0.372D-04-0.387D-02
 Coeff-Com:  0.118D-03 0.516D-02-0.791D-03-0.970D-02 0.131D+00-0.635D+00
 Coeff-Com:  0.151D+01
 Coeff:     -0.239D-04 0.221D-04 0.660D-06-0.620D-04-0.113D-04-0.905D-04
 Coeff:      0.283D-03-0.209D-03-0.138D-04 0.114D-02 0.372D-04-0.387D-02
 Coeff:      0.118D-03 0.516D-02-0.791D-03-0.970D-02 0.131D+00-0.635D+00
 Coeff:      0.151D+01
 Gap=     0.271 Goal=   None    Shift=    0.000
 Gap=     0.637 Goal=   None    Shift=    0.000
 RMSDP=4.23D-06 MaxDP=4.51D-05 DE=-2.95D-08 OVMax= 5.46D-05

 Cycle  20  Pass 1  IDiag  1:
 E= -1293.10650640652     Delta-E=       -0.000000017199 Rises=F Damp=F
 DIIS: error= 1.89D-06 at cycle  20 NSaved=  20.
 NSaved=20 IEnMin=20 EnMin= -1293.10650640652     IErMin=20 ErrMin= 1.89D-06
 ErrMax= 1.89D-06  0.00D+00 EMaxC= 1.00D-01 BMatC= 2.54D-10 BMatP= 4.34D-08
 IDIUse=1 WtCom= 1.00D+00 WtEn= 0.00D+00
 Coeff-Com:  0.118D-05 0.501D-06-0.721D-06 0.349D-04-0.262D-04 0.217D-03
 Coeff-Com: -0.185D-03-0.203D-03 0.248D-03 0.535D-05-0.294D-03 0.536D-03
 Coeff-Com:  0.177D-03-0.108D-02-0.190D-03 0.647D-02-0.681D-01 0.267D+00
 Coeff-Com: -0.826D+00 0.162D+01
 Coeff:      0.118D-05 0.501D-06-0.721D-06 0.349D-04-0.262D-04 0.217D-03
 Coeff:     -0.185D-03-0.203D-03 0.248D-03 0.535D-05-0.294D-03 0.536D-03
 Coeff:      0.177D-03-0.108D-02-0.190D-03 0.647D-02-0.681D-01 0.267D+00
 Coeff:     -0.826D+00 0.162D+01
 Gap=     0.271 Goal=   None    Shift=    0.000
 Gap=     0.637 Goal=   None    Shift=    0.000
 RMSDP=5.61D-07 MaxDP=1.51D-05 DE=-1.72D-08 OVMax= 9.46D-06

 Cycle  21  Pass 1  IDiag  1:
 E= -1293.10650640668     Delta-E=       -0.000000000159 Rises=F Damp=F
 DIIS: error= 1.33D-06 at cycle  21 NSaved=  20.
 NSaved=20 IEnMin=20 EnMin= -1293.10650640668     IErMin=20 ErrMin= 1.33D-06
 ErrMax= 1.33D-06  0.00D+00 EMaxC= 1.00D-01 BMatC= 9.57D-11 BMatP= 2.54D-10
 IDIUse=1 WtCom= 1.00D+00 WtEn= 0.00D+00
 Coeff-Com:  0.905D-06-0.127D-05-0.476D-05 0.211D-05-0.341D-04-0.657D-05
 Coeff-Com:  0.150D-04 0.377D-04 0.626D-04-0.951D-04-0.265D-03 0.180D-03
 Coeff-Com:  0.404D-03-0.852D-03-0.113D-02 0.209D-01-0.786D-01 0.255D+00
 Coeff-Com: -0.740D+00 0.154D+01
 Coeff:      0.905D-06-0.127D-05-0.476D-05 0.211D-05-0.341D-04-0.657D-05
 Coeff:      0.150D-04 0.377D-04 0.626D-04-0.951D-04-0.265D-03 0.180D-03
 Coeff:      0.404D-03-0.852D-03-0.113D-02 0.209D-01-0.786D-01 0.255D+00
 Coeff:     -0.740D+00 0.154D+01
 Gap=     0.271 Goal=   None    Shift=    0.000
 Gap=     0.637 Goal=   None    Shift=    0.000
 RMSDP=5.29D-07 MaxDP=8.53D-06 DE=-1.59D-10 OVMax= 9.65D-06

 Cycle  22  Pass 1  IDiag  1:
 E= -1293.10650640669     Delta-E=       -0.000000000016 Rises=F Damp=F
 DIIS: error= 1.02D-06 at cycle  22 NSaved=  20.
 NSaved=20 IEnMin=20 EnMin= -1293.10650640669     IErMin=20 ErrMin= 1.02D-06
 ErrMax= 1.02D-06  0.00D+00 EMaxC= 1.00D-01 BMatC= 5.55D-11 BMatP= 9.57D-11
 IDIUse=1 WtCom= 1.00D+00 WtEn= 0.00D+00
 Coeff-Com: -0.501D-07-0.153D-06 0.236D-05-0.696D-05 0.203D-04 0.999D-05
 Coeff-Com: -0.410D-04-0.311D-04 0.870D-04 0.870D-04-0.178D-03-0.123D-03
 Coeff-Com:  0.124D-02-0.968D-03-0.389D-02 0.122D-01-0.337D-01 0.160D+00
 Coeff-Com: -0.510D+00 0.137D+01
 Coeff:     -0.501D-07-0.153D-06 0.236D-05-0.696D-05 0.203D-04 0.999D-05
 Coeff:     -0.410D-04-0.311D-04 0.870D-04 0.870D-04-0.178D-03-0.123D-03
 Coeff:      0.124D-02-0.968D-03-0.389D-02 0.122D-01-0.337D-01 0.160D+00
 Coeff:     -0.510D+00 0.137D+01
 Gap=     0.271 Goal=   None    Shift=    0.000
 Gap=     0.637 Goal=   None    Shift=    0.000
 RMSDP=3.35D-07 MaxDP=6.13D-06 DE=-1.59D-11 OVMax= 7.56D-06

 Cycle  23  Pass 1  IDiag  1:
 E= -1293.10650640675     Delta-E=       -0.000000000059 Rises=F Damp=F
 DIIS: error= 3.41D-07 at cycle  23 NSaved=  20.
 NSaved=20 IEnMin=20 EnMin= -1293.10650640675     IErMin=20 ErrMin= 3.41D-07
 ErrMax= 3.41D-07  0.00D+00 EMaxC= 1.00D-01 BMatC= 5.56D-12 BMatP= 5.55D-11
 IDIUse=1 WtCom= 1.00D+00 WtEn= 0.00D+00
 Coeff-Com:  0.117D-06 0.191D-07 0.201D-05 0.211D-05-0.288D-05-0.108D-05
 Coeff-Com:  0.309D-05-0.632D-05-0.779D-05 0.216D-04 0.892D-05-0.205D-03
 Coeff-Com:  0.237D-03-0.398D-03 0.186D-02-0.855D-02 0.179D-01-0.236D-01
 Coeff-Com: -0.334D-01 0.105D+01
 Coeff:      0.117D-06 0.191D-07 0.201D-05 0.211D-05-0.288D-05-0.108D-05
 Coeff:      0.309D-05-0.632D-05-0.779D-05 0.216D-04 0.892D-05-0.205D-03
 Coeff:      0.237D-03-0.398D-03 0.186D-02-0.855D-02 0.179D-01-0.236D-01
 Coeff:     -0.334D-01 0.105D+01
 Gap=     0.271 Goal=   None    Shift=    0.000
 Gap=     0.637 Goal=   None    Shift=    0.000
 RMSDP=6.17D-08 MaxDP=1.14D-06 DE=-5.89D-11 OVMax= 1.32D-06

 Cycle  24  Pass 1  IDiag  1:
 E= -1293.10650640676     Delta-E=       -0.000000000007 Rises=F Damp=F
 DIIS: error= 9.23D-08 at cycle  24 NSaved=  20.
 NSaved=20 IEnMin=20 EnMin= -1293.10650640676     IErMin=20 ErrMin= 9.23D-08
 ErrMax= 9.23D-08  0.00D+00 EMaxC= 1.00D-01 BMatC= 4.18D-13 BMatP= 5.56D-12
 IDIUse=1 WtCom= 1.00D+00 WtEn= 0.00D+00
 Large coefficients: NSaved= 20 BigCof=    0.00 CofMax=   10.00 Det=-4.77D-15
 Inversion failed.  Reducing to 19 matrices.
 Large coefficients: NSaved= 19 BigCof=    0.00 CofMax=   10.00 Det=-4.84D-15
 Inversion failed.  Reducing to 18 matrices.
 Large coefficients: NSaved= 18 BigCof=    0.00 CofMax=   10.00 Det=-5.59D-15
 Inversion failed.  Reducing to 17 matrices.
 Large coefficients: NSaved= 17 BigCof=    0.00 CofMax=   10.00 Det=-6.08D-15
 Inversion failed.  Reducing to 16 matrices.
 Large coefficients: NSaved= 16 BigCof=    0.00 CofMax=   10.00 Det=-6.08D-15
 Inversion failed.  Reducing to 15 matrices.
 Coeff-Com:  0.261D-06 0.879D-06-0.967D-06-0.350D-05 0.179D-05 0.439D-04
 Coeff-Com: -0.395D-04-0.800D-04 0.322D-03 0.251D-03 0.159D-03-0.644D-02
 Coeff-Com:  0.368D-01-0.498D+00 0.147D+01
 Coeff:      0.261D-06 0.879D-06-0.967D-06-0.350D-05 0.179D-05 0.439D-04
 Coeff:     -0.395D-04-0.800D-04 0.322D-03 0.251D-03 0.159D-03-0.644D-02
 Coeff:      0.368D-01-0.498D+00 0.147D+01
 Gap=     0.271 Goal=   None    Shift=    0.000
 Gap=     0.637 Goal=   None    Shift=    0.000
 RMSDP=2.13D-08 MaxDP=3.69D-07 DE=-7.28D-12 OVMax= 4.66D-07

 Cycle  25  Pass 1  IDiag  1:
 E= -1293.10650640676     Delta-E=       -0.000000000003 Rises=F Damp=F
 DIIS: error= 1.82D-09 at cycle  25 NSaved=  16.
 NSaved=16 IEnMin=16 EnMin= -1293.10650640676     IErMin=16 ErrMin= 1.82D-09
 ErrMax= 1.82D-09  0.00D+00 EMaxC= 1.00D-01 BMatC= 3.67D-16 BMatP= 4.18D-13
 IDIUse=1 WtCom= 1.00D+00 WtEn= 0.00D+00
 Large coefficients: NSaved= 16 BigCof=    0.00 CofMax=   10.00 Det=-1.36D-16
 Inversion failed.  Reducing to 15 matrices.
 Coeff-Com: -0.768D-07 0.450D-07 0.360D-06-0.238D-06-0.580D-05 0.446D-05
 Coeff-Com:  0.888D-05-0.486D-04-0.561D-04-0.357D-04 0.147D-02-0.731D-02
 Coeff-Com:  0.960D-01-0.372D+00 0.128D+01
 Coeff:     -0.768D-07 0.450D-07 0.360D-06-0.238D-06-0.580D-05 0.446D-05
 Coeff:      0.888D-05-0.486D-04-0.561D-04-0.357D-04 0.147D-02-0.731D-02
 Coeff:      0.960D-01-0.372D+00 0.128D+01
 Gap=     0.271 Goal=   None    Shift=    0.000
 Gap=     0.637 Goal=   None    Shift=    0.000
 RMSDP=6.23D-10 MaxDP=1.33D-08 DE=-2.96D-12 OVMax= 9.76D-09

 SCF Done:  E(UHF) =  -1293.10650641     A.U. after   25 cycles
            NFock= 25  Conv=0.62D-09     -V/T= 2.0026
 <Sx>= 0.0000 <Sy>= 0.0000 <Sz>= 1.5000 <S**2>= 6.3137 S= 2.0620
 <L.S>= 0.000000000000E+00
 KE= 1.289729129517D+03 PE=-3.320672804713D+03 EE= 6.136312044585D+02
 Annihilation of the first spin contaminant:
 S**2 before annihilation     6.3137,   after     8.2747
 Leave Link  502 at Tue Sep 22 13:39:25 2015, MaxMem=    33554432 cpu:               0.2 elap:               0.2
 (Enter /home/gauss/gdvi01p/gdv/l601.exe)
 Copying SCF densities to generalized density rwf, IOpCl= 1 IROHF=0.

 **********************************************************************

            Population analysis using the SCF density.

 **********************************************************************

 Alpha  occ. eigenvalues -- -239.09038 -29.13049 -24.79356 -24.79356 -24.78787
 Alpha  occ. eigenvalues --  -20.52892 -20.52846  -4.08090  -2.77136  -2.77136
 Alpha  occ. eigenvalues --   -2.76733  -1.16138  -1.13107  -0.67076  -0.67076
 Alpha  occ. eigenvalues --   -0.66519  -0.66236  -0.66236  -0.50300  -0.48199
 Alpha  occ. eigenvalues --   -0.25512  -0.25512
 Alpha virt. eigenvalues --    0.01542   0.01542   0.02964   0.09352   0.09352
 Alpha virt. eigenvalues --    0.10733   0.21015   0.21015   0.23523   0.37684
 Alpha virt. eigenvalues --    1.30621   1.79141   1.79141   1.87017   1.88353
 Alpha virt. eigenvalues --    1.88353   1.93025   2.48779   2.53077   2.53077
 Alpha virt. eigenvalues --    2.62680   2.62680   3.04670   3.35002  19.12853
  Beta  occ. eigenvalues -- -239.08701 -29.00589 -24.67834 -24.67251 -24.67251
  Beta  occ. eigenvalues --  -20.59072 -20.59023  -3.67992  -2.30164  -2.28146
  Beta  occ. eigenvalues --   -2.28146  -1.39818  -1.38363  -0.66150  -0.66150
  Beta  occ. eigenvalues --   -0.66018  -0.66018  -0.64585  -0.60527
  Beta virt. eigenvalues --    0.03201   0.06651   0.06651   0.10866   0.19418
  Beta virt. eigenvalues --    0.23629   0.23629   0.33677   0.33677   0.33736
  Beta virt. eigenvalues --    0.33736   0.39320   0.43502   1.41941   1.63869
  Beta virt. eigenvalues --    1.63869   1.71513   1.71513   1.82024   1.90130
  Beta virt. eigenvalues --    2.51724   2.81280   2.81280   2.87332   2.87332
  Beta virt. eigenvalues --    2.96204   3.43558  19.17056
          Condensed to atoms (all electrons):
               1          2          3
     1  Mn  24.002625   0.216046   0.216046
     2  O    0.216046   8.066742  -0.000146
     3  O    0.216046  -0.000146   8.066742
          Atomic-Atomic Spin Densities.
               1          2          3
     1  Mn   5.835937   0.136317   0.136317
     2  O    0.136317  -1.690554  -0.000048
     3  O    0.136317  -0.000048  -1.690554
 Mulliken charges and spin densities:
               1          2
     1  Mn   0.565284   6.108571
     2  O   -0.282642  -1.554285
     3  O   -0.282642  -1.554285
 Sum of Mulliken charges =   0.00000   3.00000
 Mulliken charges and spin densities with hydrogens summed into heavy atoms:
               1          2
     1  Mn   0.565284   6.108571
     2  O   -0.282642  -1.554285
     3  O   -0.282642  -1.554285
 Electronic spatial extent (au):  <R**2>=            260.8600
 Charge=              0.0000 electrons
 Dipole moment (field-independent basis, Debye):
    X=              0.0000    Y=              0.0000    Z=              0.0000  Tot=              0.0000
 Quadrupole moment (field-independent basis, Debye-Ang):
   XX=            -27.0216   YY=            -27.0216   ZZ=            -36.4853
   XY=              0.0000   XZ=              0.0000   YZ=              0.0000
 Traceless Quadrupole moment (field-independent basis, Debye-Ang):
   XX=              3.1546   YY=              3.1546   ZZ=             -6.3091
   XY=              0.0000   XZ=              0.0000   YZ=              0.0000
 Octapole moment (field-independent basis, Debye-Ang**2):
  XXX=              0.0000  YYY=              0.0000  ZZZ=              0.0000  XYY=              0.0000
  XXY=              0.0000  XXZ=              0.0000  XZZ=              0.0000  YZZ=              0.0000
  YYZ=              0.0000  XYZ=              0.0000
 Hexadecapole moment (field-independent basis, Debye-Ang**3):
 XXXX=            -48.6247 YYYY=            -48.6247 ZZZZ=           -301.8590 XXXY=              0.0000
 XXXZ=              0.0000 YYYX=              0.0000 YYYZ=              0.0000 ZZZX=              0.0000
 ZZZY=              0.0000 XXYY=            -16.2082 XXZZ=            -48.6536 YYZZ=            -48.6536
 XXYZ=              0.0000 YYXZ=              0.0000 ZZXY=              0.0000
 N-N= 1.242059643306D+02 E-N=-3.320672804534D+03  KE= 1.289729129517D+03
                          Isotropic Fermi Contact Couplings
        Atom                 a.u.       MegaHertz       Gauss      10(-4) cm-1
     1  Mn(55)             1.16910     430.75448     153.70391     143.68423
     2  O(17)             -0.30441      61.51148      21.94882      20.51802
     3  O(17)             -0.30441      61.51148      21.94882      20.51802
 --------------------------------------------------------
       Center         ----  Spin Dipole Couplings  ----
                      3XX-RR        3YY-RR        3ZZ-RR
 --------------------------------------------------------
     1   Atom        0.517580      0.517580     -1.035160
     2   Atom       -1.211280     -1.211280      2.422560
     3   Atom       -1.211280     -1.211280      2.422560
 --------------------------------------------------------
                        XY            XZ            YZ
 --------------------------------------------------------
     1   Atom        0.000000      0.000000      0.000000
     2   Atom        0.000000      0.000000      0.000000
     3   Atom        0.000000      0.000000      0.000000
 --------------------------------------------------------


 ---------------------------------------------------------------------------------
              Anisotropic Spin Dipole Couplings in Principal Axis System
 ---------------------------------------------------------------------------------

       Atom             a.u.   MegaHertz   Gauss  10(-4) cm-1        Axes

              Baa    -1.0352  -136.581   -48.735   -45.558  0.0000  0.0000  1.0000
     1 Mn(55) Bbb     0.5176    68.290    24.368    22.779 -0.2608  0.9654  0.0000
              Bcc     0.5176    68.290    24.368    22.779  0.9654  0.2608  0.0000
 
              Baa    -1.2113    87.647    31.275    29.236  0.9710 -0.2390  0.0000
     2 O(17)  Bbb    -1.2113    87.647    31.275    29.236  0.2390  0.9710  0.0000
              Bcc     2.4226  -175.295   -62.550   -58.472  0.0000  0.0000  1.0000
 
              Baa    -1.2113    87.647    31.275    29.236  0.2390  0.9710  0.0000
     3 O(17)  Bbb    -1.2113    87.647    31.275    29.236  0.9710 -0.2390  0.0000
              Bcc     2.4226  -175.295   -62.550   -58.472  0.0000  0.0000  1.0000
 

 ---------------------------------------------------------------------------------

 No NMR shielding tensors so no spin-rotation constants.
 Leave Link  601 at Tue Sep 22 13:39:25 2015, MaxMem=    33554432 cpu:               0.2 elap:               0.2
 (Enter /home/gauss/gdvi01p/gdv/l9999.exe)
 Unable to Open any file for archive entry.
 1\1\GINC-MEDUSA\SP\UHF\3-21G\Mn1O2(4)\DBWY\22-Sep-2015\0\\#p uhf/3-21G
  nosymm\\MnO2 3-21G\\0,4\Mn,0,0.,0.,0.\O,0,0.,0.,1.840528\O,0,0.,0.,-1
 .840528\\Version=ES64L-GDVRevI.01+\HF=-1293.1065064\S2=6.313674\S2-1=0
 .\S2A=8.274667\RMSD=6.234e-10\Dipole=0.,0.,0.\Quadrupole=2.3453327,2.3
 453327,-4.6906655,0.,0.,0.\PG=D*H [O(Mn1),C*(O1.O1)]\\@
 The archive entry for this job was punched.


 OLD AGE AND TREACHERY WILL ALWAYS PREVAIL OVER YOUTH AND SKILL.
 Job cpu time:       0 days  0 hours  0 minutes  1.2 seconds.
 Elapsed time:       0 days  0 hours  0 minutes  1.0 seconds.
 File lengths (MBytes):  RWF=      5 Int=      0 D2E=      0 Chk=      1 Scr=      1
 Normal termination of Gaussian DV at Tue Sep 22 13:39:25 2015.
