 Entering Gaussian System, Link 0=gdv
 Input=MnO2_6-31G.com
 Output=MnO2_6-31G.log
 Initial command:
 /home/gauss/gdvi01p/gdv/l1.exe "/home/GauScr/Gau-32722.inp" -scrdir="/home/GauScr/"
 Entering Link 1 = /home/gauss/gdvi01p/gdv/l1.exe PID=     32723.
  
 Copyright (c) 1988,1990,1992,1993,1995,1998,2003,2009,2014,
            Gaussian, Inc.  All Rights Reserved.
  
 This is the private, development version of
 the Gaussian(R) DV system of programs. It is based on
 the Gaussian(R) 09 system (copyright 2009, Gaussian, Inc.),
 the Gaussian(R) 03 system (copyright 2003, Gaussian, Inc.),
 the Gaussian(R) 98 system (copyright 1998, Gaussian, Inc.),
 the Gaussian(R) 94 system (copyright 1995, Gaussian, Inc.),
 the Gaussian 92(TM) system (copyright 1992, Gaussian, Inc.),
 the Gaussian 90(TM) system (copyright 1990, Gaussian, Inc.),
 the Gaussian 88(TM) system (copyright 1988, Gaussian, Inc.),
 the Gaussian 86(TM) system (copyright 1986, Carnegie Mellon
 University), and the Gaussian 82(TM) system (copyright 1983,
 Carnegie Mellon University). Gaussian is a federally registered
 trademark of Gaussian, Inc.
  
 This software contains proprietary and confidential information,
 including trade secrets, belonging to Gaussian, Inc.
  
 This software is provided under written license and may be
 used, copied, transmitted, or stored only in accord with that
 written license.
  
 The following legend is applicable only to US Government
 contracts under FAR:
  
                    RESTRICTED RIGHTS LEGEND
  
 Use, reproduction and disclosure by the US Government is
 subject to restrictions as set forth in subparagraphs (a)
 and (c) of the Commercial Computer Software - Restricted
 Rights clause in FAR 52.227-19.
  
 Gaussian, Inc.
 340 Quinnipiac St., Bldg. 40, Wallingford CT 06492
  
  
 ---------------------------------------------------------------
 Warning -- This program may not be used in any manner that
 competes with the business of Gaussian, Inc. or will provide
 assistance to any competitor of Gaussian, Inc.  The licensee
 of this program is prohibited from giving any competitor of
 Gaussian, Inc. access to this program.  By using this program,
 the user acknowledges that Gaussian, Inc. is engaged in the
 business of creating and licensing software in the field of
 computational chemistry and represents and warrants to the
 licensee that it is not a competitor of Gaussian, Inc. and that
 it will not use this program in any manner prohibited above.
 ---------------------------------------------------------------
  

 Cite this work as:
 Gaussian Development Version, Revision I.01+,
 M. J. Frisch, G. W. Trucks, H. B. Schlegel, G. E. Scuseria, 
 M. A. Robb, J. R. Cheeseman, G. Scalmani, V. Barone, B. Mennucci, 
 G. A. Petersson, H. Nakatsuji, M. Caricato, X. Li, H. P. Hratchian, 
 A. F. Izmaylov, J. Bloino, B. G. Janesko, F. Lipparini, G. Zheng, 
 J. L. Sonnenberg, W. Liang, M. Hada, M. Ehara, K. Toyota, R. Fukuda, 
 J. Hasegawa, M. Ishida, T. Nakajima, Y. Honda, O. Kitao, H. Nakai, 
 T. Vreven, J. A. Montgomery, Jr., J. E. Peralta, F. Ogliaro, 
 M. Bearpark, J. J. Heyd, E. Brothers, K. N. Kudin, V. N. Staroverov, 
 T. Keith, R. Kobayashi, J. Normand, K. Raghavachari, A. Rendell, 
 J. C. Burant, S. S. Iyengar, J. Tomasi, M. Cossi, N. Rega, 
 J. M. Millam, M. Klene, J. E. Knox, J. B. Cross, V. Bakken, 
 C. Adamo, J. Jaramillo, R. Gomperts, R. E. Stratmann, O. Yazyev, 
 A. J. Austin, R. Cammi, C. Pomelli, J. W. Ochterski, R. L. Martin, 
 K. Morokuma, V. G. Zakrzewski, G. A. Voth, P. Salvador, 
 J. J. Dannenberg, S. Dapprich, P. V. Parandekar, N. J. Mayhall, 
 A. D. Daniels, O. Farkas, J. B. Foresman, J. V. Ortiz, 
 J. Cioslowski, and D. J. Fox, Gaussian, Inc., Wallingford CT, 2010.
 
 *******************************************
 Gaussian DV:  ES64L-GDVRevI.01+ 11-Sep-2014
                 22-Sep-2015 
 *******************************************
 -------------------
 #p uhf/6-31G nosymm
 -------------------
 1/38=1,172=1/1;
 2/12=2,15=1,17=6,18=5,40=1/2;
 3/5=1,6=6,11=2,25=1,30=1,116=2/1,2,3;
 4//1;
 5/5=2,38=5/2;
 6/7=2,8=2,9=2,10=2,28=1/1;
 99/5=1,9=1/99;
 Leave Link    1 at Tue Sep 22 13:39:26 2015, MaxMem=           0 cpu:               0.0 elap:               0.0
 (Enter /home/gauss/gdvi01p/gdv/l101.exe)
 ----------
 MnO2 6-31G
 ----------
 Symbolic Z-matrix:
 Charge =  0 Multiplicity = 4
 Mn                    0.        0.        0. 
 O                     0.        0.        1.84053 
 O                     0.        0.       -1.84053 
 
 ITRead=  0  0  0
 MicOpt= -1 -1 -1
 NAtoms=      3 NQM=        3 NQMF=       0 NMMI=      0 NMMIF=      0
                NMic=       0 NMicF=      0.
                    Isotopes and Nuclear Properties:
 (Nuclear quadrupole moments (NQMom) in fm**2, nuclear magnetic moments (NMagM)
  in nuclear magnetons)

  Atom         1           2           3
 IAtWgt=          55          16          16
 AtmWgt=  54.9380463  15.9949146  15.9949146
 NucSpn=           5           0           0
 AtZEff=   0.0000000   0.0000000   0.0000000
 NQMom=   33.0000000   0.0000000   0.0000000
 NMagM=    3.4532000   0.0000000   0.0000000
 AtZNuc=  25.0000000   8.0000000   8.0000000
 Leave Link  101 at Tue Sep 22 13:39:27 2015, MaxMem=    33554432 cpu:               0.1 elap:               0.1
 (Enter /home/gauss/gdvi01p/gdv/l202.exe)
                          Input orientation:                          
 ---------------------------------------------------------------------
 Center     Atomic      Atomic             Coordinates (Angstroms)
 Number     Number       Type             X           Y           Z
 ---------------------------------------------------------------------
      1         25           0        0.000000    0.000000    0.000000
      2          8           0        0.000000    0.000000    1.840528
      3          8           0        0.000000    0.000000   -1.840528
 ---------------------------------------------------------------------
                    Distance matrix (angstroms):
                    1          2          3
     1  Mn   0.000000
     2  O    1.840528   0.000000
     3  O    1.840528   3.681056   0.000000
 Symmetry turned off by external request.
 Stoichiometry    MnO2(4)
 Framework group  D*H[O(Mn),C*(O.O)]
 Deg. of freedom     1
 Full point group                 D*H     NOp   8
 Rotational constants (GHZ):      0.0000000      4.6635906      4.6635906
 Leave Link  202 at Tue Sep 22 13:39:27 2015, MaxMem=    33554432 cpu:               0.0 elap:               0.0
 (Enter /home/gauss/gdvi01p/gdv/l301.exe)
 Standard basis: 6-31G (6D, 7F)
 Ernie: Thresh=  0.10000D-02 Tol=  0.10000D-05 Strict=F.
    47 basis functions,   138 primitive gaussians,    47 cartesian basis functions
    22 alpha electrons       19 beta electrons
       nuclear repulsion energy       124.2059643306 Hartrees.
 IExCor=    0 DFT=F Ex=HF Corr=None ExCW=0 ScaHFX=  1.000000
 ScaDFX=  1.000000  1.000000  1.000000  1.000000 ScalE2=  1.000000  1.000000
 IRadAn=      0 IRanWt=     -1 IRanGd=            0 ICorTp=0 IEmpDi=  4
 NAtoms=    3 NActive=    3 NUniq=    3 SFac= 1.00D+00 NAtFMM=   60 NAOKFM=F Big=F
 Integral buffers will be    131072 words long.
 Raffenetti 2 integral format.
 Two-electron integral symmetry is turned off.
 Leave Link  301 at Tue Sep 22 13:39:27 2015, MaxMem=    33554432 cpu:               0.1 elap:               0.1
 (Enter /home/gauss/gdvi01p/gdv/l302.exe)
 NPDir=0 NMtPBC=     1 NCelOv=     1 NCel=       1 NClECP=     1 NCelD=      1
         NCelK=      1 NCelE2=     1 NClLst=     1 CellRange=     0.0.
 One-electron integrals computed using PRISM.
 One-electron integral symmetry used in STVInt
 NBasis=    47 RedAO= T EigKep=  1.96D-03  NBF=    47
 NBsUse=    47 1.00D-06 EigRej= -1.00D+00 NBFU=    47
 Leave Link  302 at Tue Sep 22 13:39:27 2015, MaxMem=    33554432 cpu:               0.1 elap:               0.1
 (Enter /home/gauss/gdvi01p/gdv/l303.exe)
 DipDrv:  MaxL=1.
 Leave Link  303 at Tue Sep 22 13:39:27 2015, MaxMem=    33554432 cpu:               0.0 elap:               0.0
 (Enter /home/gauss/gdvi01p/gdv/l401.exe)
 ExpMin= 3.84D-02 ExpMax= 5.63D+04 ExpMxC= 8.46D+03 IAcc=3 IRadAn=         5 AccDes= 0.00D+00
 Harris functional with IExCor=  205 and IRadAn=       5 diagonalized for initial guess.
 HarFok:  IExCor=  205 AccDes= 0.00D+00 IRadAn=         5 IDoV= 1 UseB2=F ITyADJ=14
 ICtDFT=  3500011 ScaDFX=  1.000000  1.000000  1.000000  1.000000
 FoFCou: FMM=F IPFlag=           0 FMFlag=      100000 FMFlg1=           0
         NFxFlg=           0 DoJE=T BraDBF=F KetDBF=T FulRan=T
         wScrn=  0.000000 ICntrl=       500 IOpCl=  0 I1Cent=   200000004 NGrid=           0
         NMat0=    1 NMatS0=      1 NMatT0=    0 NMatD0=    1 NMtDS0=    0 NMtDT0=    0
 Symmetry not used in FoFCou.
 Harris En= -1298.75086608616    
 JPrj=0 DoOrth=F DoCkMO=F.
 Initial guess <Sx>= 0.0000 <Sy>= 0.0000 <Sz>= 1.5000 <S**2>= 3.7500 S= 1.5000
 Leave Link  401 at Tue Sep 22 13:39:27 2015, MaxMem=    33554432 cpu:               0.3 elap:               0.3
 (Enter /home/gauss/gdvi01p/gdv/l502.exe)
 Keep R1 and R2 ints in memory in canonical form, NReq=2110833.
 FoFCou: FMM=F IPFlag=           0 FMFlag=           0 FMFlg1=           0
         NFxFlg=           0 DoJE=F BraDBF=F KetDBF=F FulRan=T
         wScrn=  0.000000 ICntrl=       600 IOpCl=  0 I1Cent=           0 NGrid=           0
         NMat0=    1 NMatS0=   1128 NMatT0=    0 NMatD0=    1 NMtDS0=    0 NMtDT0=    0
 Symmetry not used in FoFCou.
 Two-electron integral symmetry not used.
 UHF open shell SCF:
 Using DIIS extrapolation, IDIIS=  1040.
 NGot=    33554432 LenX=    32275732 LenY=    32273082
 Requested convergence on RMS density matrix=1.00D-08 within 128 cycles.
 Requested convergence on MAX density matrix=1.00D-06.
 Requested convergence on             energy=1.00D-06.
 No special actions if energy rises.

 Cycle   1  Pass 1  IDiag  1:
 E= -1297.78319296709    
 DIIS: error= 2.19D-01 at cycle   1 NSaved=   1.
 NSaved= 1 IEnMin= 1 EnMin= -1297.78319296709     IErMin= 1 ErrMin= 2.19D-01
 ErrMax= 2.19D-01  0.00D+00 EMaxC= 1.00D-01 BMatC= 6.07D+00 BMatP= 6.07D+00
 IDIUse=3 WtCom= 0.00D+00 WtEn= 1.00D+00
 Coeff-Com:  0.100D+01
 Coeff-En:   0.100D+01
 Coeff:      0.100D+01
 Gap=     0.885 Goal=   None    Shift=    0.000
 Gap=    -0.315 Goal=   None    Shift=    0.000
 GapD=   -0.315 DampG=0.250 DampE=0.125 DampFc=0.1250 IDamp=-1.
 Damping current iteration by 1.25D-01
 RMSDP=5.28D-02 MaxDP=6.50D-01              OVMax= 9.91D-01

 Cycle   2  Pass 1  IDiag  1:
 E= -1298.15212800984     Delta-E=       -0.368935042750 Rises=F Damp=T
 DIIS: error= 9.84D-02 at cycle   2 NSaved=   2.
 NSaved= 2 IEnMin= 2 EnMin= -1298.15212800984     IErMin= 2 ErrMin= 9.84D-02
 ErrMax= 9.84D-02  0.00D+00 EMaxC= 1.00D-01 BMatC= 1.63D+00 BMatP= 6.07D+00
 IDIUse=3 WtCom= 1.59D-02 WtEn= 9.84D-01
 Coeff-Com: -0.892D+00 0.189D+01
 Coeff-En:   0.000D+00 0.100D+01
 Coeff:     -0.142D-01 0.101D+01
 Gap=     0.146 Goal=   None    Shift=    0.000
 Gap=    -0.001 Goal=   None    Shift=    0.000
 RMSDP=2.32D-02 MaxDP=2.81D-01 DE=-3.69D-01 OVMax= 9.91D-01

 Cycle   3  Pass 1  IDiag  1:
 E= -1297.43136194976     Delta-E=        0.720766060075 Rises=F Damp=F
 DIIS: error= 3.06D-01 at cycle   3 NSaved=   3.
 NSaved= 3 IEnMin= 2 EnMin= -1298.15212800984     IErMin= 2 ErrMin= 9.84D-02
 ErrMax= 3.06D-01  0.00D+00 EMaxC= 1.00D-01 BMatC= 8.99D+00 BMatP= 1.63D+00
 IDIUse=2 WtCom= 0.00D+00 WtEn= 1.00D+00
 EnCoef did   100 forward-backward iterations
 Coeff-En:   0.539D+00 0.125D-01 0.449D+00
 Coeff:      0.539D+00 0.125D-01 0.449D+00
 Gap=     0.242 Goal=   None    Shift=    0.000
 Gap=     0.531 Goal=   None    Shift=    0.000
 RMSDP=1.51D-02 MaxDP=2.33D-01 DE= 7.21D-01 OVMax= 4.07D-01

 Cycle   4  Pass 1  IDiag  1:
 E= -1298.97951898681     Delta-E=       -1.548157037043 Rises=F Damp=F
 DIIS: error= 2.26D-02 at cycle   4 NSaved=   4.
 NSaved= 4 IEnMin= 4 EnMin= -1298.97951898681     IErMin= 4 ErrMin= 2.26D-02
 ErrMax= 2.26D-02  0.00D+00 EMaxC= 1.00D-01 BMatC= 3.93D-02 BMatP= 1.63D+00
 IDIUse=3 WtCom= 7.74D-01 WtEn= 2.26D-01
 Coeff-Com: -0.325D+00 0.466D+00-0.702D-01 0.929D+00
 Coeff-En:   0.000D+00 0.000D+00 0.000D+00 0.100D+01
 Coeff:     -0.252D+00 0.360D+00-0.544D-01 0.945D+00
 Gap=     0.310 Goal=   None    Shift=    0.000
 Gap=     0.435 Goal=   None    Shift=    0.000
 RMSDP=3.42D-03 MaxDP=5.01D-02 DE=-1.55D+00 OVMax= 9.55D-02

 Cycle   5  Pass 1  IDiag  1:
 E= -1299.00677164385     Delta-E=       -0.027252657043 Rises=F Damp=F
 DIIS: error= 5.17D-02 at cycle   5 NSaved=   5.
 NSaved= 5 IEnMin= 5 EnMin= -1299.00677164385     IErMin= 4 ErrMin= 2.26D-02
 ErrMax= 5.17D-02  0.00D+00 EMaxC= 1.00D-01 BMatC= 9.12D-02 BMatP= 3.93D-02
 IDIUse=2 WtCom= 0.00D+00 WtEn= 1.00D+00
 Coeff-En:   0.000D+00 0.000D+00 0.000D+00 0.000D+00 0.100D+01
 Coeff:      0.000D+00 0.000D+00 0.000D+00 0.000D+00 0.100D+01
 Gap=     0.222 Goal=   None    Shift=    0.000
 Gap=     0.393 Goal=   None    Shift=    0.000
 RMSDP=5.87D-03 MaxDP=1.28D-01 DE=-2.73D-02 OVMax= 2.29D-01

 Cycle   6  Pass 1  IDiag  1:
 E= -1299.01945903655     Delta-E=       -0.012687392702 Rises=F Damp=F
 DIIS: error= 8.45D-02 at cycle   6 NSaved=   6.
 NSaved= 6 IEnMin= 6 EnMin= -1299.01945903655     IErMin= 4 ErrMin= 2.26D-02
 ErrMax= 8.45D-02  0.00D+00 EMaxC= 1.00D-01 BMatC= 3.93D-01 BMatP= 3.93D-02
 IDIUse=2 WtCom= 0.00D+00 WtEn= 1.00D+00
 Coeff-En:   0.000D+00 0.000D+00 0.000D+00 0.000D+00 0.382D+00 0.618D+00
 Coeff:      0.000D+00 0.000D+00 0.000D+00 0.000D+00 0.382D+00 0.618D+00
 Gap=     0.279 Goal=   None    Shift=    0.000
 Gap=     0.535 Goal=   None    Shift=    0.000
 RMSDP=5.87D-03 MaxDP=8.22D-02 DE=-1.27D-02 OVMax= 1.64D-01

 Cycle   7  Pass 1  IDiag  1:
 E= -1299.08695229418     Delta-E=       -0.067493257627 Rises=F Damp=F
 DIIS: error= 6.75D-02 at cycle   7 NSaved=   7.
 NSaved= 7 IEnMin= 7 EnMin= -1299.08695229418     IErMin= 4 ErrMin= 2.26D-02
 ErrMax= 6.75D-02  0.00D+00 EMaxC= 1.00D-01 BMatC= 1.63D-01 BMatP= 3.93D-02
 IDIUse=2 WtCom= 0.00D+00 WtEn= 1.00D+00
 Coeff-En:   0.000D+00 0.000D+00 0.000D+00 0.000D+00 0.000D+00 0.109D+00
 Coeff-En:   0.891D+00
 Coeff:      0.000D+00 0.000D+00 0.000D+00 0.000D+00 0.000D+00 0.109D+00
 Coeff:      0.891D+00
 Gap=     0.207 Goal=   None    Shift=    0.000
 Gap=     0.467 Goal=   None    Shift=    0.000
 RMSDP=5.84D-03 MaxDP=1.28D-01 DE=-6.75D-02 OVMax= 2.20D-01

 Cycle   8  Pass 1  IDiag  1:
 E= -1299.14397765982     Delta-E=       -0.057025365642 Rises=F Damp=F
 DIIS: error= 5.66D-02 at cycle   8 NSaved=   8.
 NSaved= 8 IEnMin= 8 EnMin= -1299.14397765982     IErMin= 4 ErrMin= 2.26D-02
 ErrMax= 5.66D-02  0.00D+00 EMaxC= 1.00D-01 BMatC= 2.25D-01 BMatP= 3.93D-02
 IDIUse=2 WtCom= 0.00D+00 WtEn= 1.00D+00
 Coeff-En:   0.000D+00 0.000D+00 0.000D+00 0.000D+00 0.000D+00 0.000D+00
 Coeff-En:   0.000D+00 0.100D+01
 Coeff:      0.000D+00 0.000D+00 0.000D+00 0.000D+00 0.000D+00 0.000D+00
 Coeff:      0.000D+00 0.100D+01
 Gap=     0.247 Goal=   None    Shift=    0.000
 Gap=     0.618 Goal=   None    Shift=    0.000
 RMSDP=6.28D-03 MaxDP=1.02D-01 DE=-5.70D-02 OVMax= 1.30D-01

 Cycle   9  Pass 1  IDiag  1:
 E= -1299.18156008520     Delta-E=       -0.037582425382 Rises=F Damp=F
 DIIS: error= 5.38D-02 at cycle   9 NSaved=   9.
 NSaved= 9 IEnMin= 9 EnMin= -1299.18156008520     IErMin= 4 ErrMin= 2.26D-02
 ErrMax= 5.38D-02  0.00D+00 EMaxC= 1.00D-01 BMatC= 1.66D-01 BMatP= 3.93D-02
 IDIUse=2 WtCom= 0.00D+00 WtEn= 1.00D+00
 Coeff-En:   0.000D+00 0.000D+00 0.000D+00 0.000D+00 0.000D+00 0.000D+00
 Coeff-En:   0.000D+00 0.744D-01 0.926D+00
 Coeff:      0.000D+00 0.000D+00 0.000D+00 0.000D+00 0.000D+00 0.000D+00
 Coeff:      0.000D+00 0.744D-01 0.926D+00
 Gap=     0.218 Goal=   None    Shift=    0.000
 Gap=     0.506 Goal=   None    Shift=    0.000
 RMSDP=5.45D-03 MaxDP=9.00D-02 DE=-3.76D-02 OVMax= 1.52D-01

 Cycle  10  Pass 1  IDiag  1:
 E= -1299.21581748915     Delta-E=       -0.034257403944 Rises=F Damp=F
 DIIS: error= 3.00D-02 at cycle  10 NSaved=  10.
 NSaved=10 IEnMin=10 EnMin= -1299.21581748915     IErMin= 4 ErrMin= 2.26D-02
 ErrMax= 3.00D-02  0.00D+00 EMaxC= 1.00D-01 BMatC= 1.38D-01 BMatP= 3.93D-02
 IDIUse=2 WtCom= 0.00D+00 WtEn= 1.00D+00
 Coeff-En:   0.000D+00 0.000D+00 0.000D+00 0.000D+00 0.000D+00 0.000D+00
 Coeff-En:   0.000D+00 0.000D+00 0.777D-01 0.922D+00
 Coeff:      0.000D+00 0.000D+00 0.000D+00 0.000D+00 0.000D+00 0.000D+00
 Coeff:      0.000D+00 0.000D+00 0.777D-01 0.922D+00
 Gap=     0.233 Goal=   None    Shift=    0.000
 Gap=     0.624 Goal=   None    Shift=    0.000
 RMSDP=4.43D-03 MaxDP=7.45D-02 DE=-3.43D-02 OVMax= 5.85D-02

 Cycle  11  Pass 1  IDiag  1:
 E= -1299.23794203644     Delta-E=       -0.022124547294 Rises=F Damp=F
 DIIS: error= 2.35D-02 at cycle  11 NSaved=  11.
 NSaved=11 IEnMin=11 EnMin= -1299.23794203644     IErMin= 4 ErrMin= 2.26D-02
 ErrMax= 2.35D-02  0.00D+00 EMaxC= 1.00D-01 BMatC= 4.72D-02 BMatP= 3.93D-02
 IDIUse=2 WtCom= 0.00D+00 WtEn= 1.00D+00
 Coeff-En:   0.000D+00 0.000D+00 0.000D+00 0.000D+00 0.000D+00 0.000D+00
 Coeff-En:   0.000D+00 0.000D+00 0.000D+00 0.000D+00 0.100D+01
 Coeff:      0.000D+00 0.000D+00 0.000D+00 0.000D+00 0.000D+00 0.000D+00
 Coeff:      0.000D+00 0.000D+00 0.000D+00 0.000D+00 0.100D+01
 Gap=     0.236 Goal=   None    Shift=    0.000
 Gap=     0.554 Goal=   None    Shift=    0.000
 RMSDP=3.05D-03 MaxDP=4.35D-02 DE=-2.21D-02 OVMax= 6.86D-02

 Cycle  12  Pass 1  IDiag  1:
 E= -1299.24747382683     Delta-E=       -0.009531790387 Rises=F Damp=F
 DIIS: error= 1.41D-02 at cycle  12 NSaved=  12.
 NSaved=12 IEnMin=12 EnMin= -1299.24747382683     IErMin=12 ErrMin= 1.41D-02
 ErrMax= 1.41D-02  0.00D+00 EMaxC= 1.00D-01 BMatC= 3.84D-02 BMatP= 3.93D-02
 IDIUse=3 WtCom= 8.59D-01 WtEn= 1.41D-01
 Coeff-Com: -0.137D-02 0.608D-02 0.106D-01-0.772D-01 0.119D+00-0.183D+00
 Coeff-Com:  0.297D+00 0.775D+00-0.897D+00-0.179D+01 0.878D+00 0.187D+01
 Coeff-En:   0.000D+00 0.000D+00 0.000D+00 0.000D+00 0.000D+00 0.000D+00
 Coeff-En:   0.000D+00 0.000D+00 0.000D+00 0.000D+00 0.483D-01 0.952D+00
 Coeff:     -0.117D-02 0.523D-02 0.913D-02-0.664D-01 0.103D+00-0.158D+00
 Coeff:      0.255D+00 0.666D+00-0.770D+00-0.154D+01 0.761D+00 0.174D+01
 Gap=     0.232 Goal=   None    Shift=    0.000
 Gap=     0.612 Goal=   None    Shift=    0.000
 RMSDP=1.92D-03 MaxDP=2.38D-02 DE=-9.53D-03 OVMax= 2.32D-02

 Cycle  13  Pass 1  IDiag  1:
 E= -1299.25672662037     Delta-E=       -0.009252793541 Rises=F Damp=F
 DIIS: error= 3.42D-03 at cycle  13 NSaved=  13.
 NSaved=13 IEnMin=13 EnMin= -1299.25672662037     IErMin=13 ErrMin= 3.42D-03
 ErrMax= 3.42D-03  0.00D+00 EMaxC= 1.00D-01 BMatC= 8.62D-04 BMatP= 3.84D-02
 IDIUse=3 WtCom= 9.66D-01 WtEn= 3.42D-02
 Coeff-Com:  0.851D-02-0.103D-01 0.746D-05 0.328D-01-0.485D-01 0.101D+00
 Coeff-Com: -0.131D+00-0.378D+00 0.400D+00 0.399D+00-0.662D+00-0.365D+00
 Coeff-Com:  0.165D+01
 Coeff-En:   0.000D+00 0.000D+00 0.000D+00 0.000D+00 0.000D+00 0.000D+00
 Coeff-En:   0.000D+00 0.000D+00 0.000D+00 0.000D+00 0.000D+00 0.000D+00
 Coeff-En:   0.100D+01
 Coeff:      0.822D-02-0.990D-02 0.721D-05 0.316D-01-0.468D-01 0.976D-01
 Coeff:     -0.127D+00-0.365D+00 0.386D+00 0.385D+00-0.639D+00-0.353D+00
 Coeff:      0.163D+01
 Gap=     0.243 Goal=   None    Shift=    0.000
 Gap=     0.631 Goal=   None    Shift=    0.000
 RMSDP=1.57D-03 MaxDP=1.65D-02 DE=-9.25D-03 OVMax= 3.22D-02

 Cycle  14  Pass 1  IDiag  1:
 E= -1299.25788793765     Delta-E=       -0.001161317277 Rises=F Damp=F
 DIIS: error= 1.61D-03 at cycle  14 NSaved=  14.
 NSaved=14 IEnMin=14 EnMin= -1299.25788793765     IErMin=14 ErrMin= 1.61D-03
 ErrMax= 1.61D-03  0.00D+00 EMaxC= 1.00D-01 BMatC= 2.07D-04 BMatP= 8.62D-04
 IDIUse=3 WtCom= 9.84D-01 WtEn= 1.61D-02
 Coeff-Com: -0.252D-02 0.334D-02-0.335D-03-0.611D-02 0.644D-02 0.234D-01
 Coeff-Com: -0.155D-01-0.137D+00 0.704D-01 0.332D+00-0.120D+00-0.375D+00
 Coeff-Com:  0.426D+00 0.794D+00
 Coeff-En:   0.000D+00 0.000D+00 0.000D+00 0.000D+00 0.000D+00 0.000D+00
 Coeff-En:   0.000D+00 0.000D+00 0.000D+00 0.000D+00 0.000D+00 0.000D+00
 Coeff-En:   0.000D+00 0.100D+01
 Coeff:     -0.248D-02 0.328D-02-0.329D-03-0.601D-02 0.634D-02 0.230D-01
 Coeff:     -0.152D-01-0.135D+00 0.693D-01 0.327D+00-0.118D+00-0.369D+00
 Coeff:      0.419D+00 0.797D+00
 Gap=     0.241 Goal=   None    Shift=    0.000
 Gap=     0.627 Goal=   None    Shift=    0.000
 RMSDP=3.12D-04 MaxDP=3.39D-03 DE=-1.16D-03 OVMax= 6.67D-03

 Cycle  15  Pass 1  IDiag  1:
 E= -1299.25801947484     Delta-E=       -0.000131537189 Rises=F Damp=F
 DIIS: error= 2.63D-04 at cycle  15 NSaved=  15.
 NSaved=15 IEnMin=15 EnMin= -1299.25801947484     IErMin=15 ErrMin= 2.63D-04
 ErrMax= 2.63D-04  0.00D+00 EMaxC= 1.00D-01 BMatC= 4.74D-06 BMatP= 2.07D-04
 IDIUse=3 WtCom= 9.97D-01 WtEn= 2.63D-03
 Coeff-Com: -0.721D-03 0.640D-03-0.256D-04-0.181D-04 0.128D-02-0.650D-02
 Coeff-Com: -0.284D-02 0.297D-01 0.508D-02-0.508D-01 0.772D-02 0.534D-01
 Coeff-Com: -0.110D+00-0.294D+00 0.137D+01
 Coeff-En:   0.000D+00 0.000D+00 0.000D+00 0.000D+00 0.000D+00 0.000D+00
 Coeff-En:   0.000D+00 0.000D+00 0.000D+00 0.000D+00 0.000D+00 0.000D+00
 Coeff-En:   0.000D+00 0.000D+00 0.100D+01
 Coeff:     -0.719D-03 0.638D-03-0.255D-04-0.181D-04 0.127D-02-0.649D-02
 Coeff:     -0.284D-02 0.296D-01 0.507D-02-0.507D-01 0.770D-02 0.533D-01
 Coeff:     -0.109D+00-0.293D+00 0.137D+01
 Gap=     0.240 Goal=   None    Shift=    0.000
 Gap=     0.627 Goal=   None    Shift=    0.000
 RMSDP=6.76D-05 MaxDP=8.18D-04 DE=-1.32D-04 OVMax= 1.99D-03

 Cycle  16  Pass 1  IDiag  1:
 E= -1299.25802358394     Delta-E=       -0.000004109100 Rises=F Damp=F
 DIIS: error= 3.13D-05 at cycle  16 NSaved=  16.
 NSaved=16 IEnMin=16 EnMin= -1299.25802358394     IErMin=16 ErrMin= 3.13D-05
 ErrMax= 3.13D-05  0.00D+00 EMaxC= 1.00D-01 BMatC= 1.03D-07 BMatP= 4.74D-06
 IDIUse=1 WtCom= 1.00D+00 WtEn= 0.00D+00
 Coeff-Com: -0.475D-04 0.749D-04-0.186D-04-0.589D-04-0.129D-02 0.168D-02
 Coeff-Com:  0.215D-03-0.511D-02 0.147D-02 0.533D-02-0.336D-02-0.328D-02
 Coeff-Com:  0.639D-02 0.520D-01-0.295D+00 0.124D+01
 Coeff:     -0.475D-04 0.749D-04-0.186D-04-0.589D-04-0.129D-02 0.168D-02
 Coeff:      0.215D-03-0.511D-02 0.147D-02 0.533D-02-0.336D-02-0.328D-02
 Coeff:      0.639D-02 0.520D-01-0.295D+00 0.124D+01
 Gap=     0.241 Goal=   None    Shift=    0.000
 Gap=     0.627 Goal=   None    Shift=    0.000
 RMSDP=1.62D-05 MaxDP=1.69D-04 DE=-4.11D-06 OVMax= 3.18D-04

 Cycle  17  Pass 1  IDiag  1:
 E= -1299.25802357154     Delta-E=        0.000000012397 Rises=F Damp=F
 DIIS: error= 4.03D-05 at cycle  17 NSaved=  17.
 NSaved=17 IEnMin=16 EnMin= -1299.25802358394     IErMin=16 ErrMin= 3.13D-05
 ErrMax= 4.03D-05  0.00D+00 EMaxC= 1.00D-01 BMatC= 1.19D-07 BMatP= 1.03D-07
 IDIUse=1 WtCom= 1.00D+00 WtEn= 0.00D+00
 Coeff-Com: -0.462D-05-0.211D-05 0.133D-04 0.531D-03-0.218D-03-0.496D-03
 Coeff-Com: -0.761D-03 0.586D-03 0.219D-02 0.422D-03-0.353D-02-0.166D-02
 Coeff-Com:  0.154D-01-0.336D-01 0.104D+00-0.673D+00 0.159D+01
 Coeff:     -0.462D-05-0.211D-05 0.133D-04 0.531D-03-0.218D-03-0.496D-03
 Coeff:     -0.761D-03 0.586D-03 0.219D-02 0.422D-03-0.353D-02-0.166D-02
 Coeff:      0.154D-01-0.336D-01 0.104D+00-0.673D+00 0.159D+01
 Gap=     0.241 Goal=   None    Shift=    0.000
 Gap=     0.627 Goal=   None    Shift=    0.000
 RMSDP=1.07D-05 MaxDP=1.11D-04 DE= 1.24D-08 OVMax= 2.03D-04

 Cycle  18  Pass 1  IDiag  1:
 E= -1299.25802366587     Delta-E=       -0.000000094332 Rises=F Damp=F
 DIIS: error= 3.85D-06 at cycle  18 NSaved=  18.
 NSaved=18 IEnMin=18 EnMin= -1299.25802366587     IErMin=18 ErrMin= 3.85D-06
 ErrMax= 3.85D-06  0.00D+00 EMaxC= 1.00D-01 BMatC= 1.78D-09 BMatP= 1.03D-07
 IDIUse=1 WtCom= 1.00D+00 WtEn= 0.00D+00
 Coeff-Com:  0.126D-04-0.181D-04 0.566D-05-0.102D-03-0.118D-03-0.180D-03
 Coeff-Com:  0.697D-03 0.784D-03-0.130D-02-0.134D-02 0.194D-02 0.156D-02
 Coeff-Com: -0.849D-02-0.379D-02 0.274D-01 0.408D-01-0.439D+00 0.138D+01
 Coeff:      0.126D-04-0.181D-04 0.566D-05-0.102D-03-0.118D-03-0.180D-03
 Coeff:      0.697D-03 0.784D-03-0.130D-02-0.134D-02 0.194D-02 0.156D-02
 Coeff:     -0.849D-02-0.379D-02 0.274D-01 0.408D-01-0.439D+00 0.138D+01
 Gap=     0.241 Goal=   None    Shift=    0.000
 Gap=     0.627 Goal=   None    Shift=    0.000
 RMSDP=1.20D-06 MaxDP=1.35D-05 DE=-9.43D-08 OVMax= 2.44D-05

 Cycle  19  Pass 1  IDiag  1:
 E= -1299.25802366677     Delta-E=       -0.000000000897 Rises=F Damp=F
 DIIS: error= 4.03D-06 at cycle  19 NSaved=  19.
 NSaved=19 IEnMin=19 EnMin= -1299.25802366677     IErMin=18 ErrMin= 3.85D-06
 ErrMax= 4.03D-06  0.00D+00 EMaxC= 1.00D-01 BMatC= 1.27D-09 BMatP= 1.78D-09
 IDIUse=1 WtCom= 1.00D+00 WtEn= 0.00D+00
 Coeff-Com: -0.867D-05 0.108D-04 0.544D-05-0.396D-04 0.300D-03-0.256D-03
 Coeff-Com: -0.466D-03 0.626D-03 0.407D-03-0.719D-03-0.404D-03 0.414D-03
 Coeff-Com:  0.911D-03 0.713D-02-0.221D-01 0.535D-01-0.708D-01-0.159D+00
 Coeff-Com:  0.119D+01
 Coeff:     -0.867D-05 0.108D-04 0.544D-05-0.396D-04 0.300D-03-0.256D-03
 Coeff:     -0.466D-03 0.626D-03 0.407D-03-0.719D-03-0.404D-03 0.414D-03
 Coeff:      0.911D-03 0.713D-02-0.221D-01 0.535D-01-0.708D-01-0.159D+00
 Coeff:      0.119D+01
 Gap=     0.241 Goal=   None    Shift=    0.000
 Gap=     0.627 Goal=   None    Shift=    0.000
 RMSDP=5.49D-07 MaxDP=6.65D-06 DE=-8.97D-10 OVMax= 1.24D-05

 Cycle  20  Pass 1  IDiag  1:
 E= -1299.25802366703     Delta-E=       -0.000000000264 Rises=F Damp=F
 DIIS: error= 9.05D-07 at cycle  20 NSaved=  20.
 NSaved=20 IEnMin=20 EnMin= -1299.25802366703     IErMin=20 ErrMin= 9.05D-07
 ErrMax= 9.05D-07  0.00D+00 EMaxC= 1.00D-01 BMatC= 5.91D-11 BMatP= 1.27D-09
 IDIUse=1 WtCom= 1.00D+00 WtEn= 0.00D+00
 Coeff-Com: -0.172D-06 0.203D-06 0.663D-06 0.104D-04-0.160D-04-0.235D-04
 Coeff-Com:  0.334D-04 0.445D-04-0.362D-04-0.159D-04-0.390D-05-0.125D-04
 Coeff-Com:  0.404D-03-0.241D-02 0.649D-02-0.344D-01 0.990D-01-0.175D+00
 Coeff-Com: -0.189D+00 0.129D+01
 Coeff:     -0.172D-06 0.203D-06 0.663D-06 0.104D-04-0.160D-04-0.235D-04
 Coeff:      0.334D-04 0.445D-04-0.362D-04-0.159D-04-0.390D-05-0.125D-04
 Coeff:      0.404D-03-0.241D-02 0.649D-02-0.344D-01 0.990D-01-0.175D+00
 Coeff:     -0.189D+00 0.129D+01
 Gap=     0.241 Goal=   None    Shift=    0.000
 Gap=     0.627 Goal=   None    Shift=    0.000
 RMSDP=1.95D-07 MaxDP=2.13D-06 DE=-2.64D-10 OVMax= 3.86D-06

 Cycle  21  Pass 1  IDiag  1:
 E= -1299.25802366709     Delta-E=       -0.000000000060 Rises=F Damp=F
 DIIS: error= 1.79D-07 at cycle  21 NSaved=  20.
 NSaved=20 IEnMin=20 EnMin= -1299.25802366709     IErMin=20 ErrMin= 1.79D-07
 ErrMax= 1.79D-07  0.00D+00 EMaxC= 1.00D-01 BMatC= 3.27D-12 BMatP= 5.91D-11
 IDIUse=1 WtCom= 1.00D+00 WtEn= 0.00D+00
 Coeff-Com: -0.424D-07 0.346D-08-0.143D-05 0.513D-05-0.372D-05-0.817D-05
 Coeff-Com:  0.158D-04 0.609D-05-0.255D-04 0.568D-05 0.243D-04-0.122D-03
 Coeff-Com:  0.395D-03-0.684D-03 0.487D-02-0.178D-01 0.434D-01-0.227D-02
 Coeff-Com: -0.396D+00 0.137D+01
 Coeff:     -0.424D-07 0.346D-08-0.143D-05 0.513D-05-0.372D-05-0.817D-05
 Coeff:      0.158D-04 0.609D-05-0.255D-04 0.568D-05 0.243D-04-0.122D-03
 Coeff:      0.395D-03-0.684D-03 0.487D-02-0.178D-01 0.434D-01-0.227D-02
 Coeff:     -0.396D+00 0.137D+01
 Gap=     0.241 Goal=   None    Shift=    0.000
 Gap=     0.627 Goal=   None    Shift=    0.000
 RMSDP=4.47D-08 MaxDP=7.86D-07 DE=-6.05D-11 OVMax= 6.83D-07

 Cycle  22  Pass 1  IDiag  1:
 E= -1299.25802366709     Delta-E=       -0.000000000003 Rises=F Damp=F
 DIIS: error= 9.21D-09 at cycle  22 NSaved=  20.
 NSaved=20 IEnMin=20 EnMin= -1299.25802366709     IErMin=20 ErrMin= 9.21D-09
 ErrMax= 9.21D-09  0.00D+00 EMaxC= 1.00D-01 BMatC= 1.05D-14 BMatP= 3.27D-12
 IDIUse=1 WtCom= 1.00D+00 WtEn= 0.00D+00
 Large coefficients: NSaved= 20 BigCof=    0.00 CofMax=   10.00 Det=-9.08D-15
 Inversion failed.  Reducing to 19 matrices.
 Large coefficients: NSaved= 19 BigCof=    0.00 CofMax=   10.00 Det=-9.46D-15
 Inversion failed.  Reducing to 18 matrices.
 Coeff-Com:  0.251D-06 0.843D-07-0.369D-06-0.625D-06 0.457D-06 0.100D-05
 Coeff-Com: -0.165D-05-0.124D-05 0.151D-04-0.334D-04 0.418D-04-0.426D-03
 Coeff-Com:  0.170D-02-0.484D-02 0.413D-02 0.496D-01-0.271D+00 0.122D+01
 Coeff:      0.251D-06 0.843D-07-0.369D-06-0.625D-06 0.457D-06 0.100D-05
 Coeff:     -0.165D-05-0.124D-05 0.151D-04-0.334D-04 0.418D-04-0.426D-03
 Coeff:      0.170D-02-0.484D-02 0.413D-02 0.496D-01-0.271D+00 0.122D+01
 Gap=     0.241 Goal=   None    Shift=    0.000
 Gap=     0.627 Goal=   None    Shift=    0.000
 RMSDP=2.52D-09 MaxDP=6.22D-08 DE=-2.96D-12 OVMax= 2.99D-08

 SCF Done:  E(UHF) =  -1299.25802367     A.U. after   22 cycles
            NFock= 22  Conv=0.25D-08     -V/T= 2.0003
 <Sx>= 0.0000 <Sy>= 0.0000 <Sz>= 1.5000 <S**2>= 6.1330 S= 2.0265
 <L.S>= 0.000000000000E+00
 KE= 1.298866297663D+03 PE=-3.336818208781D+03 EE= 6.144879231202D+02
 Annihilation of the first spin contaminant:
 S**2 before annihilation     6.1330,   after     7.5032
 Leave Link  502 at Tue Sep 22 13:39:27 2015, MaxMem=    33554432 cpu:               0.3 elap:               0.3
 (Enter /home/gauss/gdvi01p/gdv/l601.exe)
 Copying SCF densities to generalized density rwf, IOpCl= 1 IROHF=0.

 **********************************************************************

            Population analysis using the SCF density.

 **********************************************************************

 Alpha  occ. eigenvalues -- -240.61332 -29.27700 -24.98317 -24.98317 -24.97724
 Alpha  occ. eigenvalues --  -20.62795 -20.62793  -4.09752  -2.80377  -2.80377
 Alpha  occ. eigenvalues --   -2.80239  -1.17108  -1.13913  -0.70844  -0.70844
 Alpha  occ. eigenvalues --   -0.69612  -0.69257  -0.69257  -0.50508  -0.49852
 Alpha  occ. eigenvalues --   -0.26391  -0.26391
 Alpha virt. eigenvalues --   -0.02340  -0.02340   0.02770   0.09554   0.09554
 Alpha virt. eigenvalues --    0.12072   0.24069   0.34564   0.34564   0.70456
 Alpha virt. eigenvalues --    0.93293   1.19783   1.19783   1.24609   1.31252
 Alpha virt. eigenvalues --    1.31252   1.32608   1.49949   1.49949   1.53859
 Alpha virt. eigenvalues --    1.66040   1.66040   2.07871   2.10602  16.84240
  Beta  occ. eigenvalues -- -240.60889 -29.14858 -24.85787 -24.85367 -24.85367
  Beta  occ. eigenvalues --  -20.69254 -20.69250  -3.70015  -2.33506  -2.31998
  Beta  occ. eigenvalues --   -2.31998  -1.39789  -1.38337  -0.65809  -0.65809
  Beta  occ. eigenvalues --   -0.65308  -0.65308  -0.64777  -0.60479
  Beta virt. eigenvalues --    0.02181   0.06896   0.06896   0.12506   0.20076
  Beta virt. eigenvalues --    0.26238   0.26238   0.26947   0.26947   0.40606
  Beta virt. eigenvalues --    0.42803   0.42803   0.73890   1.01705   1.07752
  Beta virt. eigenvalues --    1.07752   1.16880   1.16880   1.19899   1.27685
  Beta virt. eigenvalues --    1.50799   1.76461   1.76461   1.86797   1.86797
  Beta virt. eigenvalues --    2.07017   2.23859  16.93844
          Condensed to atoms (all electrons):
               1          2          3
     1  Mn  23.747441   0.216485   0.216485
     2  O    0.216485   8.194853  -0.001543
     3  O    0.216485  -0.001543   8.194853
          Atomic-Atomic Spin Densities.
               1          2          3
     1  Mn   5.535348   0.153909   0.153909
     2  O    0.153909  -1.575310  -0.000183
     3  O    0.153909  -0.000183  -1.575310
 Mulliken charges and spin densities:
               1          2
     1  Mn   0.819589   5.843167
     2  O   -0.409794  -1.421583
     3  O   -0.409794  -1.421583
 Sum of Mulliken charges =   0.00000   3.00000
 Mulliken charges and spin densities with hydrogens summed into heavy atoms:
               1          2
     1  Mn   0.819589   5.843167
     2  O   -0.409794  -1.421583
     3  O   -0.409794  -1.421583
 Electronic spatial extent (au):  <R**2>=            262.8531
 Charge=              0.0000 electrons
 Dipole moment (field-independent basis, Debye):
    X=              0.0000    Y=              0.0000    Z=              0.0000  Tot=              0.0000
 Quadrupole moment (field-independent basis, Debye-Ang):
   XX=            -26.5955   YY=            -26.5955   ZZ=            -40.0184
   XY=              0.0000   XZ=              0.0000   YZ=              0.0000
 Traceless Quadrupole moment (field-independent basis, Debye-Ang):
   XX=              4.4743   YY=              4.4743   ZZ=             -8.9486
   XY=              0.0000   XZ=              0.0000   YZ=              0.0000
 Octapole moment (field-independent basis, Debye-Ang**2):
  XXX=              0.0000  YYY=              0.0000  ZZZ=              0.0000  XYY=              0.0000
  XXY=              0.0000  XXZ=              0.0000  XZZ=              0.0000  YZZ=              0.0000
  YYZ=              0.0000  XYZ=              0.0000
 Hexadecapole moment (field-independent basis, Debye-Ang**3):
 XXXX=            -49.7517 YYYY=            -49.7517 ZZZZ=           -328.4995 XXXY=              0.0000
 XXXZ=              0.0000 YYYX=              0.0000 YYYZ=              0.0000 ZZZX=              0.0000
 ZZZY=              0.0000 XXYY=            -16.5839 XXZZ=            -52.0647 YYZZ=            -52.0647
 XXYZ=              0.0000 YYXZ=              0.0000 ZZXY=              0.0000
 N-N= 1.242059643306D+02 E-N=-3.336818208000D+03  KE= 1.298866297663D+03
                          Isotropic Fermi Contact Couplings
        Atom                 a.u.       MegaHertz       Gauss      10(-4) cm-1
     1  Mn(55)             1.68515     620.89399     221.55042     207.10794
     2  O(17)             -0.42417      85.71028      30.58356      28.58987
     3  O(17)             -0.42417      85.71028      30.58356      28.58987
 --------------------------------------------------------
       Center         ----  Spin Dipole Couplings  ----
                      3XX-RR        3YY-RR        3ZZ-RR
 --------------------------------------------------------
     1   Atom        0.413133      0.413133     -0.826266
     2   Atom       -1.224292     -1.224292      2.448585
     3   Atom       -1.224292     -1.224293      2.448585
 --------------------------------------------------------
                        XY            XZ            YZ
 --------------------------------------------------------
     1   Atom        0.000000      0.000000      0.000000
     2   Atom        0.000000      0.000000      0.000000
     3   Atom        0.000000      0.000000      0.000000
 --------------------------------------------------------


 ---------------------------------------------------------------------------------
              Anisotropic Spin Dipole Couplings in Principal Axis System
 ---------------------------------------------------------------------------------

       Atom             a.u.   MegaHertz   Gauss  10(-4) cm-1        Axes

              Baa    -0.8263  -109.019   -38.901   -36.365  0.0000  0.0000  1.0000
     1 Mn(55) Bbb     0.4131    54.509    19.450    18.182  0.9598  0.2808  0.0000
              Bcc     0.4131    54.509    19.450    18.182 -0.2808  0.9598  0.0000
 
              Baa    -1.2243    88.589    31.611    29.550  0.8268  0.5625  0.0000
     2 O(17)  Bbb    -1.2243    88.589    31.611    29.550 -0.5625  0.8268  0.0000
              Bcc     2.4486  -177.178   -63.221   -59.100  0.0000  0.0000  1.0000
 
              Baa    -1.2243    88.589    31.611    29.550 -0.5625  0.8268  0.0000
     3 O(17)  Bbb    -1.2243    88.589    31.611    29.550  0.8268  0.5625  0.0000
              Bcc     2.4486  -177.178   -63.221   -59.100  0.0000  0.0000  1.0000
 

 ---------------------------------------------------------------------------------

 No NMR shielding tensors so no spin-rotation constants.
 Leave Link  601 at Tue Sep 22 13:39:28 2015, MaxMem=    33554432 cpu:               0.2 elap:               0.2
 (Enter /home/gauss/gdvi01p/gdv/l9999.exe)
 Unable to Open any file for archive entry.
 1\1\GINC-MEDUSA\SP\UHF\6-31G\Mn1O2(4)\DBWY\22-Sep-2015\0\\#p uhf/6-31G
  nosymm\\MnO2 6-31G\\0,4\Mn,0,0.,0.,0.\O,0,0.,0.,1.840528\O,0,0.,0.,-1
 .840528\\Version=ES64L-GDVRevI.01+\HF=-1299.2580237\S2=6.133002\S2-1=0
 .\S2A=7.50318\RMSD=2.519e-09\Dipole=0.,0.,0.\Quadrupole=3.3265428,3.32
 65428,-6.6530856,0.,0.,0.\PG=D*H [O(Mn1),C*(O1.O1)]\\@
 The archive entry for this job was punched.


 THERE IS NO SUBJECT, HOWEVER COMPLEX,
 WHICH, IF STUDIED WITH PATIENCE AND INTELLIGIENCE
 WILL NOT BECOME
 MORE COMPLEX
                        QUOTED BY D. GORDON ROHMAN
 Job cpu time:       0 days  0 hours  0 minutes  1.3 seconds.
 Elapsed time:       0 days  0 hours  0 minutes  1.1 seconds.
 File lengths (MBytes):  RWF=      5 Int=      0 D2E=      0 Chk=      1 Scr=      1
 Normal termination of Gaussian DV at Tue Sep 22 13:39:28 2015.
