 Entering Gaussian System, Link 0=gdv
 Input=MnO2_3-21G_CIS.com
 Output=MnO2_3-21G_CIS.log
 Initial command:
 /home/gauss/gdvi03p/gdv/l1.exe "/home/GauScr/Gau-20970.inp" -scrdir="/home/GauScr/"
 Entering Link 1 = /home/gauss/gdvi03p/gdv/l1.exe PID=     20971.
  
 Copyright (c) 1988,1990,1992,1993,1995,1998,2003,2009,2015,
            Gaussian, Inc.  All Rights Reserved.
  
 This is the private, development version of
 the Gaussian(R) DV system of programs. It is based on
 the Gaussian(R) 09 system (copyright 2009, Gaussian, Inc.),
 the Gaussian(R) 03 system (copyright 2003, Gaussian, Inc.),
 the Gaussian(R) 98 system (copyright 1998, Gaussian, Inc.),
 the Gaussian(R) 94 system (copyright 1995, Gaussian, Inc.),
 the Gaussian 92(TM) system (copyright 1992, Gaussian, Inc.),
 the Gaussian 90(TM) system (copyright 1990, Gaussian, Inc.),
 the Gaussian 88(TM) system (copyright 1988, Gaussian, Inc.),
 the Gaussian 86(TM) system (copyright 1986, Carnegie Mellon
 University), and the Gaussian 82(TM) system (copyright 1983,
 Carnegie Mellon University). Gaussian is a federally registered
 trademark of Gaussian, Inc.
  
 This software contains proprietary and confidential information,
 including trade secrets, belonging to Gaussian, Inc.
  
 This software is provided under written license and may be
 used, copied, transmitted, or stored only in accord with that
 written license.
  
 The following legend is applicable only to US Government
 contracts under FAR:
  
                    RESTRICTED RIGHTS LEGEND
  
 Use, reproduction and disclosure by the US Government is
 subject to restrictions as set forth in subparagraphs (a)
 and (c) of the Commercial Computer Software - Restricted
 Rights clause in FAR 52.227-19.
  
 Gaussian, Inc.
 340 Quinnipiac St., Bldg. 40, Wallingford CT 06492
  
  
 ---------------------------------------------------------------
 Warning -- This program may not be used in any manner that
 competes with the business of Gaussian, Inc. or will provide
 assistance to any competitor of Gaussian, Inc.  The licensee
 of this program is prohibited from giving any competitor of
 Gaussian, Inc. access to this program.  By using this program,
 the user acknowledges that Gaussian, Inc. is engaged in the
 business of creating and licensing software in the field of
 computational chemistry and represents and warrants to the
 licensee that it is not a competitor of Gaussian, Inc. and that
 it will not use this program in any manner prohibited above.
 ---------------------------------------------------------------
  

 Cite this work as:
 Gaussian Development Version, Revision I.03+,
 M. J. Frisch, G. W. Trucks, H. B. Schlegel, G. E. Scuseria, 
 M. A. Robb, J. R. Cheeseman, G. Scalmani, V. Barone, B. Mennucci, 
 G. A. Petersson, H. Nakatsuji, M. Caricato, X. Li, H. P. Hratchian, 
 J. Bloino, B. G. Janesko, A. F. Izmaylov, A. Marenich, F. Lipparini, 
 G. Zheng, J. L. Sonnenberg, W. Liang, M. Hada, M. Ehara, K. Toyota, 
 R. Fukuda, J. Hasegawa, M. Ishida, T. Nakajima, Y. Honda, O. Kitao, 
 H. Nakai, T. Vreven, K. Throssell, J. A. Montgomery, Jr., 
 J. E. Peralta, F. Ogliaro, M. Bearpark, J. J. Heyd, E. Brothers, 
 K. N. Kudin, V. N. Staroverov, T. Keith, R. Kobayashi, J. Normand, 
 K. Raghavachari, A. Rendell, J. C. Burant, S. S. Iyengar, J. Tomasi, 
 M. Cossi, N. Rega, J. M. Millam, M. Klene, J. E. Knox, J. B. Cross, 
 V. Bakken, C. Adamo, J. Jaramillo, R. Gomperts, R. E. Stratmann, 
 O. Yazyev, A. J. Austin, R. Cammi, C. Pomelli, J. W. Ochterski, 
 R. L. Martin, K. Morokuma, V. G. Zakrzewski, G. A. Voth, 
 P. Salvador, J. J. Dannenberg, S. Dapprich, P. V. Parandekar, 
 N. J. Mayhall, A. D. Daniels, O. Farkas, J. B. Foresman, 
 J. V. Ortiz, J. Cioslowski, and D. J. Fox, 
 Gaussian, Inc., Wallingford CT, 2014.
 
 *******************************************
 Gaussian DV:  ES64L-GDVRevI.03+  2-May-2015
                 28-Oct-2015 
 *******************************************
 ----------------------------------------
 #p uhf/3-21G nosymm cis(full,nstates=12)
 ----------------------------------------
 1/38=1,172=1/1;
 2/12=2,15=1,17=6,18=5,40=1/2;
 3/5=5,11=2,25=1,30=1,116=2/1,2,3,8;
 4//1;
 5/5=2,38=5/2;
 8/6=1,10=90,108=12/1,4;
 9/41=12,42=3/14;
 6/7=2,8=2,9=2,10=2/1;
 99/5=1,9=1/99;
 Leave Link    1 at Wed Oct 28 10:10:35 2015, MaxMem=           0 cpu:               0.0 elap:               0.0
 (Enter /home/gauss/gdvi03p/gdv/l101.exe)
 ----------
 MnO2 3-21G
 ----------
 Symbolic Z-matrix:
 Charge =  0 Multiplicity = 4
 Mn                    0.        0.        0. 
 O                     0.        0.        1.84053 
 O                     0.        0.       -1.84053 
 
 ITRead=  0  0  0
 MicOpt= -1 -1 -1
 NAtoms=      3 NQM=        3 NQMF=       0 NMMI=      0 NMMIF=      0
                NMic=       0 NMicF=      0.
                    Isotopes and Nuclear Properties:
 (Nuclear quadrupole moments (NQMom) in fm**2, nuclear magnetic moments (NMagM)
  in nuclear magnetons)

  Atom         1           2           3
 IAtWgt=          55          16          16
 AtmWgt=  54.9380463  15.9949146  15.9949146
 NucSpn=           5           0           0
 AtZEff=   0.0000000   0.0000000   0.0000000
 NQMom=   33.0000000   0.0000000   0.0000000
 NMagM=    3.4532000   0.0000000   0.0000000
 AtZNuc=  25.0000000   8.0000000   8.0000000
 Leave Link  101 at Wed Oct 28 10:10:35 2015, MaxMem=    33554432 cpu:               0.1 elap:               0.1
 (Enter /home/gauss/gdvi03p/gdv/l202.exe)
                          Input orientation:                          
 ---------------------------------------------------------------------
 Center     Atomic      Atomic             Coordinates (Angstroms)
 Number     Number       Type             X           Y           Z
 ---------------------------------------------------------------------
      1         25           0        0.000000    0.000000    0.000000
      2          8           0        0.000000    0.000000    1.840528
      3          8           0        0.000000    0.000000   -1.840528
 ---------------------------------------------------------------------
                    Distance matrix (angstroms):
                    1          2          3
     1  Mn   0.000000
     2  O    1.840528   0.000000
     3  O    1.840528   3.681056   0.000000
 Symmetry turned off by external request.
 Stoichiometry    MnO2(4)
 Framework group  D*H[O(Mn),C*(O.O)]
 Deg. of freedom     1
 Full point group                 D*H     NOp   8
 Rotational constants (GHZ):      0.0000000      4.6635906      4.6635906
 Leave Link  202 at Wed Oct 28 10:10:35 2015, MaxMem=    33554432 cpu:               0.0 elap:               0.0
 (Enter /home/gauss/gdvi03p/gdv/l301.exe)
 Standard basis: 3-21G (6D, 7F)
 Ernie: Thresh=  0.10000D-02 Tol=  0.10000D-05 Strict=F.
    47 basis functions,    87 primitive gaussians,    47 cartesian basis functions
    22 alpha electrons       19 beta electrons
       nuclear repulsion energy       124.2059643306 Hartrees.
 IExCor=    0 DFT=F Ex=HF Corr=None ExCW=0 ScaHFX=  1.000000
 ScaDFX=  1.000000  1.000000  1.000000  1.000000 ScalE2=  1.000000  1.000000
 IRadAn=      0 IRanWt=     -1 IRanGd=            0 ICorTp=0 IEmpDi=  4
 NAtoms=    3 NActive=    3 NUniq=    3 SFac= 1.00D+00 NAtFMM=   60 NAOKFM=F Big=F
 Integral buffers will be    131072 words long.
 Raffenetti 2 integral format.
 Two-electron integral symmetry is turned off.
 Leave Link  301 at Wed Oct 28 10:10:35 2015, MaxMem=    33554432 cpu:               0.0 elap:               0.1
 (Enter /home/gauss/gdvi03p/gdv/l302.exe)
 NPDir=0 NMtPBC=     1 NCelOv=     1 NCel=       1 NClECP=     1 NCelD=      1
         NCelK=      1 NCelE2=     1 NClLst=     1 CellRange=     0.0.
 One-electron integrals computed using PRISM.
 One-electron integral symmetry used in STVInt
 NBasis=    47 RedAO= T EigKep=  4.42D-03  NBF=    47
 NBsUse=    47 1.00D-06 EigRej= -1.00D+00 NBFU=    47
 Leave Link  302 at Wed Oct 28 10:10:35 2015, MaxMem=    33554432 cpu:               0.1 elap:               0.1
 (Enter /home/gauss/gdvi03p/gdv/l303.exe)
 DipDrv:  MaxL=1.
 Leave Link  303 at Wed Oct 28 10:10:35 2015, MaxMem=    33554432 cpu:               0.0 elap:               0.0
 (Enter /home/gauss/gdvi03p/gdv/l308.exe)
 Leave Link  308 at Wed Oct 28 10:10:35 2015, MaxMem=    33554432 cpu:               0.0 elap:               0.0
 (Enter /home/gauss/gdvi03p/gdv/l401.exe)
 ExpMin= 3.33D-02 ExpMax= 3.04D+03 ExpMxC= 3.04D+03 IAcc=3 IRadAn=         5 AccDes= 0.00D+00
 Harris functional with IExCor=  205 and IRadAn=       5 diagonalized for initial guess.
 HarFok:  IExCor=  205 AccDes= 0.00D+00 IRadAn=         5 IDoV= 1 UseB2=F ITyADJ=14
 ICtDFT=  3500011 ScaDFX=  1.000000  1.000000  1.000000  1.000000
 FoFCou: FMM=F IPFlag=           0 FMFlag=      100000 FMFlg1=           0
         NFxFlg=           0 DoJE=T BraDBF=F KetDBF=T FulRan=T
         wScrn=  0.000000 ICntrl=       500 IOpCl=  0 I1Cent=   200000004 NGrid=           0
         NMat0=    1 NMatS0=      1 NMatT0=    0 NMatD0=    1 NMtDS0=    0 NMtDT0=    0
 Symmetry not used in FoFCou.
 Harris En= -1292.63885149669    
 JPrj=0 DoOrth=F DoCkMO=F.
 Initial guess <Sx>= 0.0000 <Sy>= 0.0000 <Sz>= 1.5000 <S**2>= 3.7500 S= 1.5000
 Leave Link  401 at Wed Oct 28 10:10:36 2015, MaxMem=    33554432 cpu:               0.3 elap:               0.3
 (Enter /home/gauss/gdvi03p/gdv/l502.exe)
 Keep R1 and R2 ints in memory in canonical form, NReq=2101006.
 FoFCou: FMM=F IPFlag=           0 FMFlag=           0 FMFlg1=           0
         NFxFlg=           0 DoJE=F BraDBF=F KetDBF=F FulRan=T
         wScrn=  0.000000 ICntrl=       600 IOpCl=  0 I1Cent=           0 NGrid=           0
         NMat0=    1 NMatS0=   1128 NMatT0=    0 NMatD0=    1 NMtDS0=    0 NMtDT0=    0
 Symmetry not used in FoFCou.
 Two-electron integral symmetry not used.
 UHF open shell SCF:
 Using DIIS extrapolation, IDIIS=  1040.
 NGot=    33554432 LenX=    32275732 LenY=    32273082
 Requested convergence on RMS density matrix=1.00D-08 within 128 cycles.
 Requested convergence on MAX density matrix=1.00D-06.
 Requested convergence on             energy=1.00D-06.
 No special actions if energy rises.

 Cycle   1  Pass 1  IDiag  1:
 E= -1291.47226822033    
 DIIS: error= 2.17D-01 at cycle   1 NSaved=   1.
 NSaved= 1 IEnMin= 1 EnMin= -1291.47226822033     IErMin= 1 ErrMin= 2.17D-01
 ErrMax= 2.17D-01  0.00D+00 EMaxC= 1.00D-01 BMatC= 6.63D+00 BMatP= 6.63D+00
 IDIUse=3 WtCom= 0.00D+00 WtEn= 1.00D+00
 Coeff-Com:  0.100D+01
 Coeff-En:   0.100D+01
 Coeff:      0.100D+01
 Gap=     0.884 Goal=   None    Shift=    0.000
 Gap=    -0.312 Goal=   None    Shift=    0.000
 GapD=   -0.312 DampG=0.250 DampE=0.125 DampFc=0.1250 IDamp=-1.
 Damping current iteration by 1.25D-01
 RMSDP=5.18D-02 MaxDP=7.21D-01              OVMax= 9.96D-01

 Cycle   2  Pass 1  IDiag  1:
 E= -1291.89778191176     Delta-E=       -0.425513691430 Rises=F Damp=T
 DIIS: error= 9.58D-02 at cycle   2 NSaved=   2.
 NSaved= 2 IEnMin= 2 EnMin= -1291.89778191176     IErMin= 2 ErrMin= 9.58D-02
 ErrMax= 9.58D-02  0.00D+00 EMaxC= 1.00D-01 BMatC= 2.16D+00 BMatP= 6.63D+00
 IDIUse=3 WtCom= 4.23D-02 WtEn= 9.58D-01
 Coeff-Com: -0.996D+00 0.200D+01
 Coeff-En:   0.000D+00 0.100D+01
 Coeff:     -0.421D-01 0.104D+01
 Gap=     0.132 Goal=   None    Shift=    0.000
 Gap=     0.009 Goal=   None    Shift=    0.000
 RMSDP=3.18D-02 MaxDP=3.21D-01 DE=-4.26D-01 OVMax= 9.92D-01

 Cycle   3  Pass 1  IDiag  1:
 E= -1286.86581582723     Delta-E=        5.031966084525 Rises=F Damp=F
 DIIS: error= 5.66D-01 at cycle   3 NSaved=   3.
 NSaved= 3 IEnMin= 2 EnMin= -1291.89778191176     IErMin= 2 ErrMin= 9.58D-02
 ErrMax= 5.66D-01  0.00D+00 EMaxC= 1.00D-01 BMatC= 3.34D+01 BMatP= 2.16D+00
 IDIUse=2 WtCom= 0.00D+00 WtEn= 1.00D+00
 EnCoef did   100 forward-backward iterations
 Coeff-En:   0.711D+00 0.390D-01 0.250D+00
 Coeff:      0.711D+00 0.390D-01 0.250D+00
 Gap=     0.202 Goal=   None    Shift=    0.000
 Gap=     0.095 Goal=   None    Shift=    0.000
 RMSDP=2.70D-02 MaxDP=3.58D-01 DE= 5.03D+00 OVMax= 9.99D-01

 Cycle   4  Pass 1  IDiag  1:
 E= -1292.68971343961     Delta-E=       -5.823897612379 Rises=F Damp=F
 DIIS: error= 7.49D-02 at cycle   4 NSaved=   4.
 NSaved= 4 IEnMin= 4 EnMin= -1292.68971343961     IErMin= 4 ErrMin= 7.49D-02
 ErrMax= 7.49D-02  0.00D+00 EMaxC= 1.00D-01 BMatC= 4.45D-01 BMatP= 2.16D+00
 IDIUse=3 WtCom= 2.51D-01 WtEn= 7.49D-01
 Coeff-Com:  0.608D-01 0.969D-01-0.473D-01 0.890D+00
 Coeff-En:   0.171D-02 0.000D+00 0.000D+00 0.998D+00
 Coeff:      0.165D-01 0.243D-01-0.119D-01 0.971D+00
 Gap=     0.400 Goal=   None    Shift=    0.000
 Gap=     0.724 Goal=   None    Shift=    0.000
 RMSDP=8.61D-03 MaxDP=1.18D-01 DE=-5.82D+00 OVMax= 2.35D-01

 Cycle   5  Pass 1  IDiag  1:
 E= -1292.62323002981     Delta-E=        0.066483409805 Rises=F Damp=F
 DIIS: error= 1.13D-01 at cycle   5 NSaved=   5.
 NSaved= 5 IEnMin= 4 EnMin= -1292.68971343961     IErMin= 4 ErrMin= 7.49D-02
 ErrMax= 1.13D-01  0.00D+00 EMaxC= 1.00D-01 BMatC= 8.90D-01 BMatP= 4.45D-01
 IDIUse=2 WtCom= 0.00D+00 WtEn= 1.00D+00
 Coeff-En:   0.000D+00 0.000D+00 0.000D+00 0.616D+00 0.384D+00
 Coeff:      0.000D+00 0.000D+00 0.000D+00 0.616D+00 0.384D+00
 Gap=     0.304 Goal=   None    Shift=    0.000
 Gap=     0.400 Goal=   None    Shift=    0.000
 RMSDP=5.25D-03 MaxDP=5.89D-02 DE= 6.65D-02 OVMax= 1.70D-01

 Cycle   6  Pass 1  IDiag  1:
 E= -1292.80125059189     Delta-E=       -0.178020562083 Rises=F Damp=F
 DIIS: error= 2.26D-02 at cycle   6 NSaved=   6.
 NSaved= 6 IEnMin= 6 EnMin= -1292.80125059189     IErMin= 6 ErrMin= 2.26D-02
 ErrMax= 2.26D-02  0.00D+00 EMaxC= 1.00D-01 BMatC= 2.59D-02 BMatP= 4.45D-01
 IDIUse=3 WtCom= 7.74D-01 WtEn= 2.26D-01
 Coeff-Com: -0.246D+00 0.300D+00-0.113D-01 0.300D+00 0.387D+00 0.270D+00
 Coeff-En:   0.000D+00 0.000D+00 0.000D+00 0.000D+00 0.000D+00 0.100D+01
 Coeff:     -0.190D+00 0.232D+00-0.876D-02 0.233D+00 0.300D+00 0.435D+00
 Gap=     0.312 Goal=   None    Shift=    0.000
 Gap=     0.397 Goal=   None    Shift=    0.000
 RMSDP=1.76D-03 MaxDP=2.12D-02 DE=-1.78D-01 OVMax= 6.76D-02

 Cycle   7  Pass 1  IDiag  1:
 E= -1292.81889470249     Delta-E=       -0.017644110600 Rises=F Damp=F
 DIIS: error= 4.50D-02 at cycle   7 NSaved=   7.
 NSaved= 7 IEnMin= 7 EnMin= -1292.81889470249     IErMin= 6 ErrMin= 2.26D-02
 ErrMax= 4.50D-02  0.00D+00 EMaxC= 1.00D-01 BMatC= 5.13D-02 BMatP= 2.59D-02
 IDIUse=2 WtCom= 0.00D+00 WtEn= 1.00D+00
 Coeff-En:   0.000D+00 0.000D+00 0.000D+00 0.000D+00 0.000D+00 0.000D+00
 Coeff-En:   0.100D+01
 Coeff:      0.000D+00 0.000D+00 0.000D+00 0.000D+00 0.000D+00 0.000D+00
 Coeff:      0.100D+01
 Gap=     0.246 Goal=   None    Shift=    0.000
 Gap=     0.409 Goal=   None    Shift=    0.000
 RMSDP=4.78D-03 MaxDP=7.38D-02 DE=-1.76D-02 OVMax= 2.00D-01

 Cycle   8  Pass 1  IDiag  1:
 E= -1292.87082915903     Delta-E=       -0.051934456539 Rises=F Damp=F
 DIIS: error= 6.96D-02 at cycle   8 NSaved=   8.
 NSaved= 8 IEnMin= 8 EnMin= -1292.87082915903     IErMin= 6 ErrMin= 2.26D-02
 ErrMax= 6.96D-02  0.00D+00 EMaxC= 1.00D-01 BMatC= 1.90D-01 BMatP= 2.59D-02
 IDIUse=2 WtCom= 0.00D+00 WtEn= 1.00D+00
 Coeff-En:   0.000D+00 0.000D+00 0.000D+00 0.000D+00 0.000D+00 0.000D+00
 Coeff-En:   0.000D+00 0.100D+01
 Coeff:      0.000D+00 0.000D+00 0.000D+00 0.000D+00 0.000D+00 0.000D+00
 Coeff:      0.000D+00 0.100D+01
 Gap=     0.284 Goal=   None    Shift=    0.000
 Gap=     0.558 Goal=   None    Shift=    0.000
 RMSDP=5.67D-03 MaxDP=4.64D-02 DE=-5.19D-02 OVMax= 1.88D-01

 Cycle   9  Pass 1  IDiag  1:
 E= -1292.92929286670     Delta-E=       -0.058463707672 Rises=F Damp=F
 DIIS: error= 7.95D-02 at cycle   9 NSaved=   9.
 NSaved= 9 IEnMin= 9 EnMin= -1292.92929286670     IErMin= 6 ErrMin= 2.26D-02
 ErrMax= 7.95D-02  0.00D+00 EMaxC= 1.00D-01 BMatC= 2.25D-01 BMatP= 2.59D-02
 IDIUse=2 WtCom= 0.00D+00 WtEn= 1.00D+00
 Coeff-En:   0.000D+00 0.000D+00 0.000D+00 0.000D+00 0.000D+00 0.000D+00
 Coeff-En:   0.000D+00 0.000D+00 0.100D+01
 Coeff:      0.000D+00 0.000D+00 0.000D+00 0.000D+00 0.000D+00 0.000D+00
 Coeff:      0.000D+00 0.000D+00 0.100D+01
 Gap=     0.203 Goal=   None    Shift=    0.000
 Gap=     0.450 Goal=   None    Shift=    0.000
 RMSDP=7.28D-03 MaxDP=9.89D-02 DE=-5.85D-02 OVMax= 2.54D-01

 Cycle  10  Pass 1  IDiag  1:
 E= -1292.98811903571     Delta-E=       -0.058826169012 Rises=F Damp=F
 DIIS: error= 6.20D-02 at cycle  10 NSaved=  10.
 NSaved=10 IEnMin=10 EnMin= -1292.98811903571     IErMin= 6 ErrMin= 2.26D-02
 ErrMax= 6.20D-02  0.00D+00 EMaxC= 1.00D-01 BMatC= 3.60D-01 BMatP= 2.59D-02
 IDIUse=2 WtCom= 0.00D+00 WtEn= 1.00D+00
 Coeff-En:   0.000D+00 0.000D+00 0.000D+00 0.000D+00 0.000D+00 0.000D+00
 Coeff-En:   0.000D+00 0.000D+00 0.454D-01 0.955D+00
 Coeff:      0.000D+00 0.000D+00 0.000D+00 0.000D+00 0.000D+00 0.000D+00
 Coeff:      0.000D+00 0.000D+00 0.454D-01 0.955D+00
 Gap=     0.250 Goal=   None    Shift=    0.000
 Gap=     0.653 Goal=   None    Shift=    0.000
 RMSDP=6.57D-03 MaxDP=7.50D-02 DE=-5.88D-02 OVMax= 1.17D-01

 Cycle  11  Pass 1  IDiag  1:
 E= -1293.04289433650     Delta-E=       -0.054775300787 Rises=F Damp=F
 DIIS: error= 4.81D-02 at cycle  11 NSaved=  11.
 NSaved=11 IEnMin=11 EnMin= -1293.04289433650     IErMin= 6 ErrMin= 2.26D-02
 ErrMax= 4.81D-02  0.00D+00 EMaxC= 1.00D-01 BMatC= 1.59D-01 BMatP= 2.59D-02
 IDIUse=2 WtCom= 0.00D+00 WtEn= 1.00D+00
 Coeff-En:   0.000D+00 0.000D+00 0.000D+00 0.000D+00 0.000D+00 0.000D+00
 Coeff-En:   0.000D+00 0.000D+00 0.000D+00 0.164D-01 0.984D+00
 Coeff:      0.000D+00 0.000D+00 0.000D+00 0.000D+00 0.000D+00 0.000D+00
 Coeff:      0.000D+00 0.000D+00 0.000D+00 0.164D-01 0.984D+00
 Gap=     0.250 Goal=   None    Shift=    0.000
 Gap=     0.513 Goal=   None    Shift=    0.000
 RMSDP=5.12D-03 MaxDP=9.18D-02 DE=-5.48D-02 OVMax= 1.32D-01

 Cycle  12  Pass 1  IDiag  1:
 E= -1293.07603592088     Delta-E=       -0.033141584385 Rises=F Damp=F
 DIIS: error= 2.34D-02 at cycle  12 NSaved=  12.
 NSaved=12 IEnMin=12 EnMin= -1293.07603592088     IErMin= 6 ErrMin= 2.26D-02
 ErrMax= 2.34D-02  0.00D+00 EMaxC= 1.00D-01 BMatC= 1.16D-01 BMatP= 2.59D-02
 IDIUse=2 WtCom= 0.00D+00 WtEn= 1.00D+00
 Coeff-En:   0.000D+00 0.000D+00 0.000D+00 0.000D+00 0.000D+00 0.000D+00
 Coeff-En:   0.000D+00 0.000D+00 0.000D+00 0.000D+00 0.000D+00 0.100D+01
 Coeff:      0.000D+00 0.000D+00 0.000D+00 0.000D+00 0.000D+00 0.000D+00
 Coeff:      0.000D+00 0.000D+00 0.000D+00 0.000D+00 0.000D+00 0.100D+01
 Gap=     0.251 Goal=   None    Shift=    0.000
 Gap=     0.644 Goal=   None    Shift=    0.000
 RMSDP=3.76D-03 MaxDP=4.10D-02 DE=-3.31D-02 OVMax= 4.28D-02

 Cycle  13  Pass 1  IDiag  1:
 E= -1293.09282965517     Delta-E=       -0.016793734285 Rises=F Damp=F
 DIIS: error= 1.73D-02 at cycle  13 NSaved=  13.
 NSaved=13 IEnMin=13 EnMin= -1293.09282965517     IErMin=13 ErrMin= 1.73D-02
 ErrMax= 1.73D-02  0.00D+00 EMaxC= 1.00D-01 BMatC= 4.03D-02 BMatP= 2.59D-02
 IDIUse=2 WtCom= 0.00D+00 WtEn= 1.00D+00
 Coeff-En:   0.000D+00 0.000D+00 0.000D+00 0.000D+00 0.000D+00 0.000D+00
 Coeff-En:   0.000D+00 0.000D+00 0.000D+00 0.000D+00 0.000D+00 0.000D+00
 Coeff-En:   0.100D+01
 Coeff:      0.000D+00 0.000D+00 0.000D+00 0.000D+00 0.000D+00 0.000D+00
 Coeff:      0.000D+00 0.000D+00 0.000D+00 0.000D+00 0.000D+00 0.000D+00
 Coeff:      0.100D+01
 Gap=     0.270 Goal=   None    Shift=    0.000
 Gap=     0.573 Goal=   None    Shift=    0.000
 RMSDP=2.51D-03 MaxDP=5.04D-02 DE=-1.68D-02 OVMax= 4.81D-02

 Cycle  14  Pass 1  IDiag  1:
 E= -1293.10064651423     Delta-E=       -0.007816859064 Rises=F Damp=F
 DIIS: error= 1.06D-02 at cycle  14 NSaved=  14.
 NSaved=14 IEnMin=14 EnMin= -1293.10064651423     IErMin=14 ErrMin= 1.06D-02
 ErrMax= 1.06D-02  0.00D+00 EMaxC= 1.00D-01 BMatC= 2.43D-02 BMatP= 2.59D-02
 IDIUse=3 WtCom= 8.94D-01 WtEn= 1.06D-01
 Coeff-Com: -0.509D-02 0.673D-02-0.468D-03-0.130D-01-0.423D-01 0.242D+00
 Coeff-Com: -0.156D-01-0.399D+00 0.183D+00 0.708D+00-0.371D+00-0.176D+01
 Coeff-Com:  0.434D+00 0.203D+01
 Coeff-En:   0.000D+00 0.000D+00 0.000D+00 0.000D+00 0.000D+00 0.000D+00
 Coeff-En:   0.000D+00 0.000D+00 0.000D+00 0.000D+00 0.000D+00 0.000D+00
 Coeff-En:   0.000D+00 0.100D+01
 Coeff:     -0.455D-02 0.602D-02-0.419D-03-0.117D-01-0.379D-01 0.216D+00
 Coeff:     -0.140D-01-0.357D+00 0.163D+00 0.633D+00-0.331D+00-0.157D+01
 Coeff:      0.388D+00 0.192D+01
 Gap=     0.264 Goal=   None    Shift=    0.000
 Gap=     0.631 Goal=   None    Shift=    0.000
 RMSDP=1.75D-03 MaxDP=1.90D-02 DE=-7.82D-03 OVMax= 2.19D-02

 Cycle  15  Pass 1  IDiag  1:
 E= -1293.10627134204     Delta-E=       -0.005624827805 Rises=F Damp=F
 DIIS: error= 1.51D-03 at cycle  15 NSaved=  15.
 NSaved=15 IEnMin=15 EnMin= -1293.10627134204     IErMin=15 ErrMin= 1.51D-03
 ErrMax= 1.51D-03  0.00D+00 EMaxC= 1.00D-01 BMatC= 1.85D-04 BMatP= 2.43D-02
 IDIUse=3 WtCom= 9.85D-01 WtEn= 1.51D-02
 Coeff-Com: -0.303D-02 0.352D-02 0.748D-04 0.204D-02 0.239D-02 0.392D-01
 Coeff-Com: -0.202D-01-0.121D+00 0.479D-01 0.199D+00-0.598D-01-0.444D+00
 Coeff-Com: -0.435D-01 0.424D+00 0.973D+00
 Coeff-En:   0.000D+00 0.000D+00 0.000D+00 0.000D+00 0.000D+00 0.000D+00
 Coeff-En:   0.000D+00 0.000D+00 0.000D+00 0.000D+00 0.000D+00 0.000D+00
 Coeff-En:   0.000D+00 0.000D+00 0.100D+01
 Coeff:     -0.299D-02 0.347D-02 0.737D-04 0.201D-02 0.236D-02 0.386D-01
 Coeff:     -0.199D-01-0.119D+00 0.472D-01 0.196D+00-0.589D-01-0.437D+00
 Coeff:     -0.429D-01 0.418D+00 0.973D+00
 Gap=     0.271 Goal=   None    Shift=    0.000
 Gap=     0.638 Goal=   None    Shift=    0.000
 RMSDP=6.31D-04 MaxDP=1.21D-02 DE=-5.62D-03 OVMax= 1.24D-02

 Cycle  16  Pass 1  IDiag  1:
 E= -1293.10648390042     Delta-E=       -0.000212558383 Rises=F Damp=F
 DIIS: error= 8.66D-04 at cycle  16 NSaved=  16.
 NSaved=16 IEnMin=16 EnMin= -1293.10648390042     IErMin=16 ErrMin= 8.66D-04
 ErrMax= 8.66D-04  0.00D+00 EMaxC= 1.00D-01 BMatC= 2.22D-05 BMatP= 1.85D-04
 IDIUse=3 WtCom= 9.91D-01 WtEn= 8.66D-03
 Coeff-Com: -0.324D-03 0.728D-03-0.118D-04-0.365D-02-0.659D-02 0.389D-02
 Coeff-Com: -0.146D-02 0.160D-01 0.286D-01-0.504D-01-0.328D-01 0.192D+00
 Coeff-Com:  0.320D-01-0.265D+00-0.608D-01 0.115D+01
 Coeff-En:   0.000D+00 0.000D+00 0.000D+00 0.000D+00 0.000D+00 0.000D+00
 Coeff-En:   0.000D+00 0.000D+00 0.000D+00 0.000D+00 0.000D+00 0.000D+00
 Coeff-En:   0.000D+00 0.000D+00 0.000D+00 0.100D+01
 Coeff:     -0.321D-03 0.722D-03-0.117D-04-0.362D-02-0.653D-02 0.386D-02
 Coeff:     -0.145D-02 0.159D-01 0.283D-01-0.500D-01-0.325D-01 0.191D+00
 Coeff:      0.317D-01-0.262D+00-0.603D-01 0.115D+01
 Gap=     0.270 Goal=   None    Shift=    0.000
 Gap=     0.637 Goal=   None    Shift=    0.000
 RMSDP=1.75D-04 MaxDP=1.40D-03 DE=-2.13D-04 OVMax= 5.33D-03

 Cycle  17  Pass 1  IDiag  1:
 E= -1293.10650359642     Delta-E=       -0.000019696000 Rises=F Damp=F
 DIIS: error= 2.77D-04 at cycle  17 NSaved=  17.
 NSaved=17 IEnMin=17 EnMin= -1293.10650359642     IErMin=17 ErrMin= 2.77D-04
 ErrMax= 2.77D-04  0.00D+00 EMaxC= 1.00D-01 BMatC= 6.38D-06 BMatP= 2.22D-05
 IDIUse=3 WtCom= 9.97D-01 WtEn= 2.77D-03
 Coeff-Com:  0.694D-03-0.823D-03 0.128D-04-0.257D-04-0.373D-02 0.550D-02
 Coeff-Com:  0.268D-02-0.784D-02 0.258D-02 0.105D-01 0.532D-03-0.438D-01
 Coeff-Com:  0.493D-02 0.583D-01-0.107D+00 0.522D-01 0.103D+01
 Coeff-En:   0.000D+00 0.000D+00 0.000D+00 0.000D+00 0.000D+00 0.000D+00
 Coeff-En:   0.000D+00 0.000D+00 0.000D+00 0.000D+00 0.000D+00 0.000D+00
 Coeff-En:   0.000D+00 0.000D+00 0.000D+00 0.000D+00 0.100D+01
 Coeff:      0.692D-03-0.821D-03 0.128D-04-0.257D-04-0.372D-02 0.548D-02
 Coeff:      0.267D-02-0.782D-02 0.257D-02 0.105D-01 0.531D-03-0.437D-01
 Coeff:      0.492D-02 0.581D-01-0.106D+00 0.521D-01 0.102D+01
 Gap=     0.270 Goal=   None    Shift=    0.000
 Gap=     0.637 Goal=   None    Shift=    0.000
 RMSDP=4.46D-05 MaxDP=6.48D-04 DE=-1.97D-05 OVMax= 6.38D-04

 Cycle  18  Pass 1  IDiag  1:
 E= -1293.10650635986     Delta-E=       -0.000002763436 Rises=F Damp=F
 DIIS: error= 2.86D-05 at cycle  18 NSaved=  18.
 NSaved=18 IEnMin=18 EnMin= -1293.10650635986     IErMin=18 ErrMin= 2.86D-05
 ErrMax= 2.86D-05  0.00D+00 EMaxC= 1.00D-01 BMatC= 4.60D-08 BMatP= 6.38D-06
 IDIUse=1 WtCom= 1.00D+00 WtEn= 0.00D+00
 Coeff-Com: -0.695D-04 0.804D-04 0.413D-05 0.255D-04 0.218D-03 0.411D-03
 Coeff-Com: -0.211D-04-0.121D-02-0.168D-02 0.175D-02 0.186D-02-0.433D-02
 Coeff-Com: -0.164D-02 0.585D-02 0.145D-02-0.409D-01-0.998D-01 0.114D+01
 Coeff:     -0.695D-04 0.804D-04 0.413D-05 0.255D-04 0.218D-03 0.411D-03
 Coeff:     -0.211D-04-0.121D-02-0.168D-02 0.175D-02 0.186D-02-0.433D-02
 Coeff:     -0.164D-02 0.585D-02 0.145D-02-0.409D-01-0.998D-01 0.114D+01
 Gap=     0.271 Goal=   None    Shift=    0.000
 Gap=     0.637 Goal=   None    Shift=    0.000
 RMSDP=9.41D-06 MaxDP=1.81D-04 DE=-2.76D-06 OVMax= 1.75D-04

 Cycle  19  Pass 1  IDiag  1:
 E= -1293.10650638932     Delta-E=       -0.000000029460 Rises=F Damp=F
 DIIS: error= 2.40D-05 at cycle  19 NSaved=  19.
 NSaved=19 IEnMin=19 EnMin= -1293.10650638932     IErMin=19 ErrMin= 2.40D-05
 ErrMax= 2.40D-05  0.00D+00 EMaxC= 1.00D-01 BMatC= 4.34D-08 BMatP= 4.60D-08
 IDIUse=1 WtCom= 1.00D+00 WtEn= 0.00D+00
 Coeff-Com: -0.239D-04 0.221D-04 0.660D-06-0.620D-04-0.113D-04-0.905D-04
 Coeff-Com:  0.283D-03-0.209D-03-0.138D-04 0.114D-02 0.372D-04-0.387D-02
 Coeff-Com:  0.118D-03 0.516D-02-0.791D-03-0.970D-02 0.131D+00-0.635D+00
 Coeff-Com:  0.151D+01
 Coeff:     -0.239D-04 0.221D-04 0.660D-06-0.620D-04-0.113D-04-0.905D-04
 Coeff:      0.283D-03-0.209D-03-0.138D-04 0.114D-02 0.372D-04-0.387D-02
 Coeff:      0.118D-03 0.516D-02-0.791D-03-0.970D-02 0.131D+00-0.635D+00
 Coeff:      0.151D+01
 Gap=     0.271 Goal=   None    Shift=    0.000
 Gap=     0.637 Goal=   None    Shift=    0.000
 RMSDP=4.23D-06 MaxDP=4.51D-05 DE=-2.95D-08 OVMax= 5.46D-05

 Cycle  20  Pass 1  IDiag  1:
 E= -1293.10650640651     Delta-E=       -0.000000017199 Rises=F Damp=F
 DIIS: error= 1.89D-06 at cycle  20 NSaved=  20.
 NSaved=20 IEnMin=20 EnMin= -1293.10650640651     IErMin=20 ErrMin= 1.89D-06
 ErrMax= 1.89D-06  0.00D+00 EMaxC= 1.00D-01 BMatC= 2.54D-10 BMatP= 4.34D-08
 IDIUse=1 WtCom= 1.00D+00 WtEn= 0.00D+00
 Coeff-Com:  0.118D-05 0.501D-06-0.721D-06 0.349D-04-0.262D-04 0.217D-03
 Coeff-Com: -0.185D-03-0.203D-03 0.248D-03 0.535D-05-0.294D-03 0.536D-03
 Coeff-Com:  0.177D-03-0.108D-02-0.190D-03 0.647D-02-0.681D-01 0.267D+00
 Coeff-Com: -0.826D+00 0.162D+01
 Coeff:      0.118D-05 0.501D-06-0.721D-06 0.349D-04-0.262D-04 0.217D-03
 Coeff:     -0.185D-03-0.203D-03 0.248D-03 0.535D-05-0.294D-03 0.536D-03
 Coeff:      0.177D-03-0.108D-02-0.190D-03 0.647D-02-0.681D-01 0.267D+00
 Coeff:     -0.826D+00 0.162D+01
 Gap=     0.271 Goal=   None    Shift=    0.000
 Gap=     0.637 Goal=   None    Shift=    0.000
 RMSDP=5.61D-07 MaxDP=1.51D-05 DE=-1.72D-08 OVMax= 9.46D-06

 Cycle  21  Pass 1  IDiag  1:
 E= -1293.10650640667     Delta-E=       -0.000000000160 Rises=F Damp=F
 DIIS: error= 1.33D-06 at cycle  21 NSaved=  20.
 NSaved=20 IEnMin=20 EnMin= -1293.10650640667     IErMin=20 ErrMin= 1.33D-06
 ErrMax= 1.33D-06  0.00D+00 EMaxC= 1.00D-01 BMatC= 9.57D-11 BMatP= 2.54D-10
 IDIUse=1 WtCom= 1.00D+00 WtEn= 0.00D+00
 Coeff-Com:  0.905D-06-0.127D-05-0.476D-05 0.211D-05-0.341D-04-0.657D-05
 Coeff-Com:  0.150D-04 0.377D-04 0.626D-04-0.951D-04-0.265D-03 0.180D-03
 Coeff-Com:  0.404D-03-0.852D-03-0.113D-02 0.209D-01-0.786D-01 0.255D+00
 Coeff-Com: -0.740D+00 0.154D+01
 Coeff:      0.905D-06-0.127D-05-0.476D-05 0.211D-05-0.341D-04-0.657D-05
 Coeff:      0.150D-04 0.377D-04 0.626D-04-0.951D-04-0.265D-03 0.180D-03
 Coeff:      0.404D-03-0.852D-03-0.113D-02 0.209D-01-0.786D-01 0.255D+00
 Coeff:     -0.740D+00 0.154D+01
 Gap=     0.271 Goal=   None    Shift=    0.000
 Gap=     0.637 Goal=   None    Shift=    0.000
 RMSDP=5.29D-07 MaxDP=8.53D-06 DE=-1.60D-10 OVMax= 9.65D-06

 Cycle  22  Pass 1  IDiag  1:
 E= -1293.10650640669     Delta-E=       -0.000000000018 Rises=F Damp=F
 DIIS: error= 1.02D-06 at cycle  22 NSaved=  20.
 NSaved=20 IEnMin=20 EnMin= -1293.10650640669     IErMin=20 ErrMin= 1.02D-06
 ErrMax= 1.02D-06  0.00D+00 EMaxC= 1.00D-01 BMatC= 5.55D-11 BMatP= 9.57D-11
 IDIUse=1 WtCom= 1.00D+00 WtEn= 0.00D+00
 Coeff-Com: -0.501D-07-0.153D-06 0.236D-05-0.696D-05 0.203D-04 0.999D-05
 Coeff-Com: -0.410D-04-0.311D-04 0.870D-04 0.870D-04-0.178D-03-0.123D-03
 Coeff-Com:  0.124D-02-0.968D-03-0.389D-02 0.122D-01-0.337D-01 0.160D+00
 Coeff-Com: -0.510D+00 0.137D+01
 Coeff:     -0.501D-07-0.153D-06 0.236D-05-0.696D-05 0.203D-04 0.999D-05
 Coeff:     -0.410D-04-0.311D-04 0.870D-04 0.870D-04-0.178D-03-0.123D-03
 Coeff:      0.124D-02-0.968D-03-0.389D-02 0.122D-01-0.337D-01 0.160D+00
 Coeff:     -0.510D+00 0.137D+01
 Gap=     0.271 Goal=   None    Shift=    0.000
 Gap=     0.637 Goal=   None    Shift=    0.000
 RMSDP=3.35D-07 MaxDP=6.13D-06 DE=-1.80D-11 OVMax= 7.56D-06

 Cycle  23  Pass 1  IDiag  1:
 E= -1293.10650640675     Delta-E=       -0.000000000060 Rises=F Damp=F
 DIIS: error= 3.41D-07 at cycle  23 NSaved=  20.
 NSaved=20 IEnMin=20 EnMin= -1293.10650640675     IErMin=20 ErrMin= 3.41D-07
 ErrMax= 3.41D-07  0.00D+00 EMaxC= 1.00D-01 BMatC= 5.56D-12 BMatP= 5.55D-11
 IDIUse=1 WtCom= 1.00D+00 WtEn= 0.00D+00
 Coeff-Com:  0.117D-06 0.191D-07 0.201D-05 0.211D-05-0.288D-05-0.108D-05
 Coeff-Com:  0.309D-05-0.632D-05-0.779D-05 0.216D-04 0.892D-05-0.205D-03
 Coeff-Com:  0.237D-03-0.398D-03 0.186D-02-0.855D-02 0.179D-01-0.236D-01
 Coeff-Com: -0.334D-01 0.105D+01
 Coeff:      0.117D-06 0.191D-07 0.201D-05 0.211D-05-0.288D-05-0.108D-05
 Coeff:      0.309D-05-0.632D-05-0.779D-05 0.216D-04 0.892D-05-0.205D-03
 Coeff:      0.237D-03-0.398D-03 0.186D-02-0.855D-02 0.179D-01-0.236D-01
 Coeff:     -0.334D-01 0.105D+01
 Gap=     0.271 Goal=   None    Shift=    0.000
 Gap=     0.637 Goal=   None    Shift=    0.000
 RMSDP=6.17D-08 MaxDP=1.14D-06 DE=-5.98D-11 OVMax= 1.32D-06

 Cycle  24  Pass 1  IDiag  1:
 E= -1293.10650640676     Delta-E=       -0.000000000004 Rises=F Damp=F
 DIIS: error= 9.23D-08 at cycle  24 NSaved=  20.
 NSaved=20 IEnMin=20 EnMin= -1293.10650640676     IErMin=20 ErrMin= 9.23D-08
 ErrMax= 9.23D-08  0.00D+00 EMaxC= 1.00D-01 BMatC= 4.18D-13 BMatP= 5.56D-12
 IDIUse=1 WtCom= 1.00D+00 WtEn= 0.00D+00
 Large coefficients: NSaved= 20 BigCof=    0.00 CofMax=   10.00 Det=-4.77D-15
 Inversion failed.  Reducing to 19 matrices.
 Large coefficients: NSaved= 19 BigCof=    0.00 CofMax=   10.00 Det=-4.84D-15
 Inversion failed.  Reducing to 18 matrices.
 Large coefficients: NSaved= 18 BigCof=    0.00 CofMax=   10.00 Det=-5.59D-15
 Inversion failed.  Reducing to 17 matrices.
 Large coefficients: NSaved= 17 BigCof=    0.00 CofMax=   10.00 Det=-6.08D-15
 Inversion failed.  Reducing to 16 matrices.
 Large coefficients: NSaved= 16 BigCof=    0.00 CofMax=   10.00 Det=-6.08D-15
 Inversion failed.  Reducing to 15 matrices.
 Coeff-Com:  0.261D-06 0.879D-06-0.967D-06-0.350D-05 0.179D-05 0.439D-04
 Coeff-Com: -0.395D-04-0.799D-04 0.322D-03 0.251D-03 0.159D-03-0.644D-02
 Coeff-Com:  0.368D-01-0.498D+00 0.147D+01
 Coeff:      0.261D-06 0.879D-06-0.967D-06-0.350D-05 0.179D-05 0.439D-04
 Coeff:     -0.395D-04-0.799D-04 0.322D-03 0.251D-03 0.159D-03-0.644D-02
 Coeff:      0.368D-01-0.498D+00 0.147D+01
 Gap=     0.271 Goal=   None    Shift=    0.000
 Gap=     0.637 Goal=   None    Shift=    0.000
 RMSDP=2.13D-08 MaxDP=3.69D-07 DE=-3.64D-12 OVMax= 4.66D-07

 Cycle  25  Pass 1  IDiag  1:
 E= -1293.10650640676     Delta-E=       -0.000000000003 Rises=F Damp=F
 DIIS: error= 1.82D-09 at cycle  25 NSaved=  16.
 NSaved=16 IEnMin=16 EnMin= -1293.10650640676     IErMin=16 ErrMin= 1.82D-09
 ErrMax= 1.82D-09  0.00D+00 EMaxC= 1.00D-01 BMatC= 3.68D-16 BMatP= 4.18D-13
 IDIUse=1 WtCom= 1.00D+00 WtEn= 0.00D+00
 Large coefficients: NSaved= 16 BigCof=    0.00 CofMax=   10.00 Det=-1.37D-16
 Inversion failed.  Reducing to 15 matrices.
 Coeff-Com: -0.710D-07 0.468D-07 0.337D-06-0.239D-06-0.551D-05 0.423D-05
 Coeff-Com:  0.816D-05-0.458D-04-0.568D-04-0.296D-04 0.142D-02-0.707D-02
 Coeff-Com:  0.928D-01-0.362D+00 0.128D+01
 Coeff:     -0.710D-07 0.468D-07 0.337D-06-0.239D-06-0.551D-05 0.423D-05
 Coeff:      0.816D-05-0.458D-04-0.568D-04-0.296D-04 0.142D-02-0.707D-02
 Coeff:      0.928D-01-0.362D+00 0.128D+01
 Gap=     0.271 Goal=   None    Shift=    0.000
 Gap=     0.637 Goal=   None    Shift=    0.000
 RMSDP=6.20D-10 MaxDP=1.32D-08 DE=-3.18D-12 OVMax= 9.73D-09

 SCF Done:  E(UHF) =  -1293.10650641     A.U. after   25 cycles
            NFock= 25  Conv=0.62D-09     -V/T= 2.0026
 <Sx>= 0.0000 <Sy>= 0.0000 <Sz>= 1.5000 <S**2>= 6.3137 S= 2.0620
 <L.S>= 0.000000000000E+00
 KE= 1.289729129517D+03 PE=-3.320672804713D+03 EE= 6.136312044584D+02
 Annihilation of the first spin contaminant:
 S**2 before annihilation     6.3137,   after     8.2747
 Leave Link  502 at Wed Oct 28 10:10:36 2015, MaxMem=    33554432 cpu:               0.2 elap:               0.2
 (Enter /home/gauss/gdvi03p/gdv/l801.exe)
 Range of M.O.s used for correlation:     1    47
 NBasis=    47 NAE=    22 NBE=    19 NFC=     0 NFV=     0
 NROrb=     47 NOA=    22 NOB=    19 NVA=    25 NVB=    28

 **** Warning!!: The largest alpha MO coefficient is  0.11989614D+02


 **** Warning!!: The largest beta MO coefficient is  0.11987197D+02

 Leave Link  801 at Wed Oct 28 10:10:36 2015, MaxMem=    33554432 cpu:               0.0 elap:               0.0
 (Enter /home/gauss/gdvi03p/gdv/l804.exe)
 Open-shell transformation, MDV=    33554432 ITran=3 ISComp=1.
 Unit  1 TFree=        137648 TCopy=        169143.
 Semi-Direct transformation.
 ModeAB=           2 MOrb=            22 LenV=      33348065
 LASXX=       525646 LTotXX=      525646 LenRXX=      525646
 LTotAB=      682484 MaxLAS=     1166352 LenRXY=     1166352
 NonZer=     1210814 LenScr=     2420736 LnRSAI=           0
 LnScr1=           0 LExtra=           0 Total=      4112734
 MaxDsk=          -1 SrtSym=           F ITran=            3
 DoSDTr:  NPSUse=  1
 JobTyp=1 Pass  1:  I=   1 to  22.
 (rs|ai) integrals will be sorted in core.
 Complete sort for first half transformation.
 First half transformation complete.
 Begin second half transformation for I=  10.
 Begin second half transformation for I=  20.
 Begin second half transformation for I=  10.
 Begin second half transformation for I=  20.
 Complete sort for second half transformation.
 Second half transformation complete.
 ModeAB=           2 MOrb=            19 LenV=      33348065
 LASXX=       453340 LTotXX=      453340 LenRXX=     1007304
 LTotAB=       61750 MaxLAS=     1007304 LenRXY=       61750
 NonZer=     1045703 LenScr=     2351616 LnRSAI=           0
 LnScr1=           0 LExtra=           0 Total=      3420670
 MaxDsk=          -1 SrtSym=           F ITran=            3
 DoSDTr:  NPSUse=  1
 JobTyp=2 Pass  1:  I=   1 to  19.
 (rs|ai) integrals will be sorted in core.
 Complete sort for first half transformation.
 First half transformation complete.
 Begin second half transformation for I=  10.
 Begin second half transformation for I=  10.
 Complete sort for second half transformation.
 Second half transformation complete.
 Spin components of T(2) and E(2):
     alpha-alpha T2 =       0.8943770646D-01 E2=     -0.1125503551D+00
     alpha-beta  T2 =       0.5429768828D-01 E2=     -0.1949642633D+00
     beta-beta   T2 =       0.1055273546D-01 E2=     -0.5430316566D-01
 ANorm=    0.1074378020D+01
 E2 =    -0.3618177841D+00 EUMP2 =    -0.12934683241909D+04
 (S**2,0)=  0.63137D+01           (S**2,1)=  0.61324D+01
 E(PUHF)=      -0.12931621279D+04        E(PMP2)=      -0.12935231559D+04
 Leave Link  804 at Wed Oct 28 10:10:37 2015, MaxMem=    33554432 cpu:               1.0 elap:               1.0
 (Enter /home/gauss/gdvi03p/gdv/l914.exe)
 UHF ground state
 MDV=    33554432 DFT=F DoStab=F Mixed=F DoRPA=F DoScal=F NonHer=F
 Making orbital integer symmetry assigments:
 FoFJK:  IHMeth= 1 ICntrl=       0 DoSepK=F KAlg= 0 I1Cent=           0 FoldK=F
 IRaf=         0 NMat=       2 IRICut=       1 DoRegI=T DoRafI=F ISym2E= 0 IDoP0=0 IntGTp=1.
 FoFCou: FMM=F IPFlag=           0 FMFlag=      100000 FMFlg1=           0
         NFxFlg=           0 DoJE=F BraDBF=F KetDBF=F FulRan=T
         wScrn=  0.000000 ICntrl=         0 IOpCl=  1 I1Cent=           0 NGrid=           0
         NMat0=    2 NMatS0=      2 NMatT0=    0 NMatD0=    2 NMtDS0=    0 NMtDT0=    0
 Symmetry not used in FoFCou.
    48 initial guesses have been made.
 Convergence on wavefunction:    0.001000000000000
 Davidson Disk Diagonalization:  ConvIn= 1.00D-03 SkipCon=T Conv= 1.00D-03.
 Max sub-space:   200 roots to seek:    48 dimension of matrix:         1082
 Iteration     1 Dimension    48 NMult     0 NNew     48
 New state      1 was old state      3
 New state      2 was old state      1
 New state      3 was old state      4
 New state      4 was old state     13
 New state      5 was old state     14
 New state      6 was old state      5
 New state      7 was old state      6
 New state      8 was old state      9
 New state      9 was old state      7
 Excitation Energies [eV] at current iteration:
 Root      1 :    -0.776398298421079
 Root      2 :    -0.776398298421061
 Root      3 :    -0.731413747863641
 Root      4 :     2.300921878456762
 Root      5 :     2.300921878456847
 Root      6 :     2.447945528859496
 Root      7 :     2.447945528859611
 Root      8 :     3.910437480313177
 Root      9 :     3.910437480313201
 Root     10 :     4.013469830720712
 Root     11 :     4.479929874649740
 Root     12 :     4.479929874649771
 Root     13 :     4.836208966506731
 Root     14 :     5.443210200278716
 Root     15 :     5.443210200278843
 Root     16 :     5.602697978471673
 Root     17 :     6.904028456398050
 Root     18 :     6.904028456398057
 Root     19 :     7.051635695859077
 Root     20 :     7.497110280905813
 Root     21 :     7.497110280905981
 Root     22 :     7.565023248754472
 Root     23 :     8.147517908875969
 Root     24 :     9.540859902076949
 Root     25 :     9.540859902076985
 Root     26 :    10.185032417845520
 Root     27 :    10.185032417845520
 Root     28 :    10.225702698134790
 Root     29 :    10.620689366237570
 Root     30 :    10.620689366237600
 Root     31 :    10.665666179964610
 Root     32 :    10.665666179964680
 Root     33 :    10.710515074737130
 Root     34 :    10.983851905631410
 Root     35 :    10.983851905631570
 Root     36 :    11.176572115773830
 Root     37 :    11.176572115774340
 Root     38 :    11.530404569044260
 Root     39 :    14.256168321973720
 Root     40 :    15.205805173841820
 Root     41 :    15.902715672374490
 Root     42 :    15.902715672374760
 Root     43 :    15.931247874620640
 Root     44 :    15.931247874620730
 Root     45 :    17.773307106335290
 Root     46 :    17.773307106335500
 Root     47 :    18.221595514559020
 Root     48 :    18.221595514559040
 Iteration     2 Dimension    96 NMult    48 NNew     48
 New state      1 was old state      2
 Root      1 not converged, maximum delta is    0.405149886028588
 New state      2 was old state      1
 Root      2 not converged, maximum delta is    0.405149886029017
 Root      3 not converged, maximum delta is    0.016347842140701
 Root      4 not converged, maximum delta is    0.377093538131336
 Root      5 not converged, maximum delta is    0.377093538131159
 New state      6 was old state     11
 Root      6 not converged, maximum delta is    0.337313146839832
 New state      7 was old state     12
 Root      7 not converged, maximum delta is    0.337313146839800
 New state      8 was old state      6
 Root      8 not converged, maximum delta is    0.400186860420784
 New state      9 was old state      7
 Root      9 not converged, maximum delta is    0.400186860420657
 New state     10 was old state     13
 Root     10 not converged, maximum delta is    0.127371073899896
 New state     11 was old state      9
 Root     11 not converged, maximum delta is    0.027954667691452
 New state     12 was old state      8
 Root     12 not converged, maximum delta is    0.027954667691432
 Excitation Energies [eV] at current iteration:
 Root      1 :    -0.855834244339544   Change is   -0.079435945918483
 Root      2 :    -0.855834244339544   Change is   -0.079435945918465
 Root      3 :    -0.807119243346013   Change is   -0.075705495482372
 Root      4 :     1.477536801605362   Change is   -0.823385076851400
 Root      5 :     1.477536801605405   Change is   -0.823385076851442
 Root      6 :     2.252836155144348   Change is   -2.227093719505392
 Root      7 :     2.252836155144433   Change is   -2.227093719505338
 Root      8 :     2.283653568429775   Change is   -0.164291960429721
 Root      9 :     2.283653568429920   Change is   -0.164291960429691
 Root     10 :     3.820517377531915   Change is   -1.015691588974816
 Root     11 :     3.906063805312355   Change is   -0.004373675000846
 Root     12 :     3.906063805312397   Change is   -0.004373675000779
 Root     13 :     4.012815741276803   Change is   -0.000654089443908
 Root     14 :     5.230572926369469   Change is   -0.372125052102204
 Root     15 :     5.427074486129499   Change is   -0.016135714149218
 Root     16 :     5.427074486129510   Change is   -0.016135714149333
 Root     17 :     6.901067083159467   Change is   -0.002961373238589
 Root     18 :     6.901067083159486   Change is   -0.002961373238565
 Root     19 :     7.049381872242073   Change is   -1.098136036633895
 Root     20 :     7.051380527899670   Change is   -0.000255167959408
 Root     21 :     7.300570489679440   Change is   -0.196539791226373
 Root     22 :     7.300570489679591   Change is   -0.196539791226391
 Root     23 :     7.335080197951655   Change is   -0.229943050802818
 Root     24 :     8.489620680692489   Change is   -1.051239221384459
 Root     25 :     8.489620680692635   Change is   -1.051239221384350
 Root     26 :     8.554431746703765   Change is   -2.156083328033369
 Root     27 :    10.156050307362740   Change is   -0.028982110482774
 Root     28 :    10.156050307362780   Change is   -0.028982110482738
 Root     29 :    10.202255053236470   Change is   -0.023447644898321
 Root     30 :    10.595632792375480   Change is   -0.025056573862086
 Root     31 :    10.595632792375500   Change is   -0.025056573862104
 Root     32 :    10.637498150013150   Change is   -0.028168029951526
 Root     33 :    10.637498150013180   Change is   -0.028168029951429
 Root     34 :    10.825496629392400   Change is   -0.704907939651861
 Root     35 :    10.883849145487970   Change is   -0.100002760143435
 Root     36 :    10.883849145488130   Change is   -0.100002760143435
 Root     37 :    10.901611194131410   Change is   -0.274960921642428
 Root     38 :    10.901611194131900   Change is   -0.274960921642446
 Root     39 :    11.709528075050680   Change is   -2.546640246923041
 Root     40 :    12.384850825761000   Change is   -2.820954348080818
 Root     41 :    12.786502599883970   Change is   -3.116213072490523
 Root     42 :    12.786502599884220   Change is   -3.116213072490542
 Root     43 :    12.914522434958710   Change is   -3.016725439662028
 Root     44 :    12.914522434958710   Change is   -3.016725439661925
 Root     45 :    13.131532743354200
 Root     46 :    13.131532743354720
 Root     47 :    16.209817914329890
 Root     48 :    16.209817914330760
 Iteration     3 Dimension   108 NMult    96 NNew     12
 New state      1 was old state      2
 Root      1 not converged, maximum delta is    0.004743626565459
 New state      2 was old state      1
 Root      2 not converged, maximum delta is    0.004743626565451
 Root      3 not converged, maximum delta is    0.003642671662790
 Root      4 not converged, maximum delta is    0.525347511576834
 Root      5 not converged, maximum delta is    0.525347511576832
 Root      6 not converged, maximum delta is    0.070900763503230
 Root      7 not converged, maximum delta is    0.070900763503230
 Root      8 not converged, maximum delta is    0.697507952028153
 Root      9 not converged, maximum delta is    0.697507952028153
 Root     10 not converged, maximum delta is    0.007849396542569
 Root     11 not converged, maximum delta is    0.001691023471106
 Root     12 not converged, maximum delta is    0.001691023471106
 Excitation Energies [eV] at current iteration:
 Root      1 :    -0.857564139061724   Change is   -0.001729894722179
 Root      2 :    -0.857564139061702   Change is   -0.001729894722158
 Root      3 :    -0.808647069682590   Change is   -0.001527826336576
 Root      4 :     1.466975886874813   Change is   -0.010560914730549
 Root      5 :     1.466975886874831   Change is   -0.010560914730574
 Root      6 :     2.218788993101739   Change is   -0.034047162042609
 Root      7 :     2.218788993101836   Change is   -0.034047162042597
 Root      8 :     2.280619810954306   Change is   -0.003033757475469
 Root      9 :     2.280619810954384   Change is   -0.003033757475536
 Root     10 :     3.797940099406822   Change is   -0.022577278125092
 Root     11 :     3.905931322587342   Change is   -0.000132482725013
 Root     12 :     3.905931322587342   Change is   -0.000132482725056
 Iteration     4 Dimension   120 NMult   108 NNew     12
 New state      1 was old state      2
 Root      1 has converged.
 New state      2 was old state      1
 Root      2 has converged.
 Root      3 has converged.
 Root      4 not converged, maximum delta is    0.260180324705236
 Root      5 not converged, maximum delta is    0.260180324705236
 Root      6 not converged, maximum delta is    0.081733689548974
 Root      7 not converged, maximum delta is    0.081733689548974
 New state      8 was old state      9
 Root      8 not converged, maximum delta is    0.276097244277860
 New state      9 was old state      8
 Root      9 not converged, maximum delta is    0.276097244277860
 Root     10 not converged, maximum delta is    0.001995062212870
 New state     11 was old state     12
 Root     11 not converged, maximum delta is    0.001029291590360
 New state     12 was old state     11
 Root     12 not converged, maximum delta is    0.001029291590362
 Excitation Energies [eV] at current iteration:
 Root      1 :    -0.857567273861386   Change is   -0.000003134799684
 Root      2 :    -0.857567273861368   Change is   -0.000003134799645
 Root      3 :    -0.808649719264898   Change is   -0.000002649582308
 Root      4 :     1.466832284721364   Change is   -0.000143602153449
 Root      5 :     1.466832284721455   Change is   -0.000143602153376
 Root      6 :     2.218498836553758   Change is   -0.000290156547982
 Root      7 :     2.218498836553788   Change is   -0.000290156548049
 Root      8 :     2.280548067452928   Change is   -0.000071743501457
 Root      9 :     2.280548067452933   Change is   -0.000071743501372
 Root     10 :     3.797271103314217   Change is   -0.000668996092605
 Root     11 :     3.905908202700407   Change is   -0.000023119886935
 Root     12 :     3.905908202700449   Change is   -0.000023119886892
 Iteration     5 Dimension   129 NMult   120 NNew      9
 DSYEVD-2 returned Info=        8579 IAlg= 4 N=   129 NDim=   129 NE2=      257444 trying  DSYEV.
 Root      1 not converged, maximum delta is    0.038820438015956
 Root      2 not converged, maximum delta is    0.038820438015981
 Root      3 has converged.
 Root      4 not converged, maximum delta is    0.056066653759862
 Root      5 not converged, maximum delta is    0.056066653759861
 Root      6 not converged, maximum delta is    0.292939657650942
 Root      7 not converged, maximum delta is    0.292939657650939
 Root      8 not converged, maximum delta is    0.570831528288676
 Root      9 not converged, maximum delta is    0.570831528288676
 Root     10 has converged.
 Root     11 not converged, maximum delta is    0.005707948384204
 Root     12 not converged, maximum delta is    0.005707948384194
 Excitation Energies [eV] at current iteration:
 Root      1 :    -0.857567273861402   Change is   -0.000000000000015
 Root      2 :    -0.857567273861375   Change is   -0.000000000000007
 Root      3 :    -0.808649719264890   Change is    0.000000000000008
 Root      4 :     1.466830702751975   Change is   -0.000001581969389
 Root      5 :     1.466830702752079   Change is   -0.000001581969375
 Root      6 :     2.218494644486137   Change is   -0.000004192067620
 Root      7 :     2.218494644486201   Change is   -0.000004192067586
 Root      8 :     2.280546876902131   Change is   -0.000001190550797
 Root      9 :     2.280546876902271   Change is   -0.000001190550662
 Root     10 :     3.797251695174923   Change is   -0.000019408139295
 Root     11 :     3.905907474491750   Change is   -0.000000728208657
 Root     12 :     3.905907474491811   Change is   -0.000000728208638
 Iteration     6 Dimension   139 NMult   129 NNew     10
 New state      1 was old state      2
 Root      1 not converged, maximum delta is    0.045247422525432
 New state      2 was old state      1
 Root      2 not converged, maximum delta is    0.045247422525442
 Root      3 has converged.
 Root      4 not converged, maximum delta is    0.005826784206245
 Root      5 not converged, maximum delta is    0.005826784206245
 Root      6 not converged, maximum delta is    0.091234764559644
 Root      7 not converged, maximum delta is    0.091234764559645
 Root      8 not converged, maximum delta is    0.058339842399359
 Root      9 not converged, maximum delta is    0.058339842399359
 Root     10 has converged.
 Root     11 has converged.
 Root     12 has converged.
 Excitation Energies [eV] at current iteration:
 Root      1 :    -0.857567281073960   Change is   -0.000000007212585
 Root      2 :    -0.857567281073884   Change is   -0.000000007212483
 Root      3 :    -0.808649719264819   Change is    0.000000000000070
 Root      4 :     1.466830680313850   Change is   -0.000000022438126
 Root      5 :     1.466830680313940   Change is   -0.000000022438139
 Root      6 :     2.218494375735331   Change is   -0.000000268750806
 Root      7 :     2.218494375735404   Change is   -0.000000268750797
 Root      8 :     2.280546865663331   Change is   -0.000000011238800
 Root      9 :     2.280546865663470   Change is   -0.000000011238801
 Root     10 :     3.797251695174940   Change is    0.000000000000018
 Root     11 :     3.905907465747691   Change is   -0.000000008744059
 Root     12 :     3.905907465747721   Change is   -0.000000008744090
 Iteration     7 Dimension   141 NMult   139 NNew      2
 DSYEVD-2 returned Info=       10223 IAlg= 4 N=   141 NDim=   141 NE2=      235534 trying  DSYEV.
 Root      1 not converged, maximum delta is    0.245516000296028
 Root      2 not converged, maximum delta is    0.245516000296156
 Root      3 has converged.
 Root      4 not converged, maximum delta is    0.085511448580926
 Root      5 not converged, maximum delta is    0.085511448580925
 Root      6 not converged, maximum delta is    0.045427675786392
 Root      7 not converged, maximum delta is    0.045427675786393
 Root      8 not converged, maximum delta is    0.072449748973932
 Root      9 not converged, maximum delta is    0.072449748973932
 Root     10 has converged.
 Root     11 not converged, maximum delta is    0.200575241418271
 Root     12 not converged, maximum delta is    0.200575241418228
 Excitation Energies [eV] at current iteration:
 Root      1 :    -0.857567281073954   Change is    0.000000000000006
 Root      2 :    -0.857567281073951   Change is   -0.000000000000067
 Root      3 :    -0.808649719264885   Change is   -0.000000000000065
 Root      4 :     1.466830680313861   Change is    0.000000000000012
 Root      5 :     1.466830680313902   Change is   -0.000000000000038
 Root      6 :     2.218494370851237   Change is   -0.000000004884094
 Root      7 :     2.218494370851349   Change is   -0.000000004884055
 Root      8 :     2.280546865663360   Change is    0.000000000000029
 Root      9 :     2.280546865663501   Change is    0.000000000000030
 Root     10 :     3.797251695174940   Change is   -0.000000000000001
 Root     11 :     3.905907465747648   Change is   -0.000000000000042
 Root     12 :     3.905907465747657   Change is   -0.000000000000064
 Convergence achieved on expansion vectors.
 ***********************************************************************
 Excited states from <AA,BB:AA,BB> singles matrix:
 ***********************************************************************
 
 ExtSpn:  IState=     1 X2= 1.000 Y2= 0.000 X2-Y2-1=-2.00D-15
          S2Grnd=  6.314 Ra= -0.246 Rb=  0.000 T=  0.002 S2Ext= -0.245 S2=  6.069
 ExtSpn:  IState=     2 X2= 1.000 Y2= 0.000 X2-Y2-1=-3.55D-15
          S2Grnd=  6.314 Ra= -0.246 Rb=  0.000 T=  0.002 S2Ext= -0.245 S2=  6.069
 ExtSpn:  IState=     3 X2= 1.000 Y2= 0.000 X2-Y2-1=-9.99D-16
          S2Grnd=  6.314 Ra= -0.246 Rb=  0.000 T=  0.000 S2Ext= -0.246 S2=  6.067
 ExtSpn:  IState=     4 X2= 1.000 Y2= 0.000 X2-Y2-1= 2.22D-16
          S2Grnd=  6.314 Ra=  0.160 Rb=  0.000 T=  0.010 S2Ext=  0.171 S2=  6.484
 ExtSpn:  IState=     5 X2= 1.000 Y2= 0.000 X2-Y2-1=-7.77D-16
          S2Grnd=  6.314 Ra=  0.160 Rb=  0.000 T=  0.010 S2Ext=  0.171 S2=  6.484
 ExtSpn:  IState=     6 X2= 1.000 Y2= 0.000 X2-Y2-1=-2.22D-16
          S2Grnd=  6.314 Ra=  0.044 Rb=  0.000 T=  0.010 S2Ext=  0.054 S2=  6.367
 ExtSpn:  IState=     7 X2= 1.000 Y2= 0.000 X2-Y2-1=-3.11D-15
          S2Grnd=  6.314 Ra=  0.044 Rb=  0.000 T=  0.010 S2Ext=  0.054 S2=  6.367
 ExtSpn:  IState=     8 X2= 1.000 Y2= 0.000 X2-Y2-1=-2.22D-15
          S2Grnd=  6.314 Ra=  0.632 Rb=  0.000 T=  0.028 S2Ext=  0.660 S2=  6.974
 ExtSpn:  IState=     9 X2= 1.000 Y2= 0.000 X2-Y2-1=-5.44D-15
          S2Grnd=  6.314 Ra=  0.632 Rb=  0.000 T=  0.028 S2Ext=  0.660 S2=  6.974
 ExtSpn:  IState=    10 X2= 1.000 Y2= 0.000 X2-Y2-1=-5.11D-15
          S2Grnd=  6.314 Ra= -0.100 Rb=  0.008 T= -0.038 S2Ext= -0.130 S2=  6.183
 ExtSpn:  IState=    11 X2= 1.000 Y2= 0.000 X2-Y2-1= 8.88D-16
          S2Grnd=  6.314 Ra=  0.359 Rb=  0.000 T=  0.014 S2Ext=  0.373 S2=  6.686
 ExtSpn:  IState=    12 X2= 1.000 Y2= 0.000 X2-Y2-1=-6.66D-16
          S2Grnd=  6.314 Ra=  0.359 Rb=  0.000 T=  0.014 S2Ext=  0.373 S2=  6.686
 1PDM for each excited state written to RWF  633
 Ground to excited state transition densities written to RWF  633
 Ground to excited state transition electric dipole moments (Au):
       state          X           Y           Z        Dip. S.      Osc.
         1         0.0000      0.0000      0.0000      0.0000      0.0000
         2         0.0000      0.0000      0.0000      0.0000      0.0000
         3         0.0000      0.0000      0.0000      0.0000      0.0000
         4         0.1722     -0.3096      0.0000      0.1255      0.0045
         5        -0.3096     -0.1722      0.0000      0.1255      0.0045
         6         0.0000      0.0000      0.0000      0.0000      0.0000
         7         0.0000      0.0000      0.0000      0.0000      0.0000
         8         0.9069     -1.0191      0.0000      1.8611      0.1040
         9        -1.0191     -0.9069      0.0000      1.8611      0.1040
        10         0.0000      0.0000     -2.7933      7.8025      0.7259
        11         0.0000      0.0000      0.0000      0.0000      0.0000
        12         0.0000      0.0000      0.0000      0.0000      0.0000
 Ground to excited state transition velocity dipole moments (Au):
       state          X           Y           Z        Dip. S.      Osc.
         1         0.0000      0.0000      0.0000      0.0000      0.0000
         2         0.0000      0.0000      0.0000      0.0000      0.0000
         3         0.0000      0.0000      0.0000      0.0000      0.0000
         4        -0.0637      0.1146      0.0000      0.0172      0.2126
         5         0.1146      0.0637      0.0000      0.0172      0.2126
         6         0.0000      0.0000      0.0000      0.0000      0.0000
         7         0.0000      0.0000      0.0000      0.0000      0.0000
         8        -0.0359      0.0404      0.0000      0.0029      0.0232
         9         0.0404      0.0359      0.0000      0.0029      0.0232
        10         0.0000      0.0000     -0.1144      0.0131      0.0626
        11         0.0000      0.0000      0.0000      0.0000      0.0000
        12         0.0000      0.0000      0.0000      0.0000      0.0000
 Ground to excited state transition magnetic dipole moments (Au):
       state          X           Y           Z
         1         0.0000      0.0000      0.0000
         2         0.0000      0.0000      0.0000
         3         0.0000      0.0000      0.0000
         4         0.0000      0.0000      0.0000
         5         0.0000      0.0000      0.0000
         6         1.1868      0.9839      0.0000
         7         0.9839     -1.1868      0.0000
         8         0.0000      0.0000      0.0000
         9         0.0000      0.0000      0.0000
        10         0.0000      0.0000      0.0000
        11         0.0000      0.0000      0.0000
        12         0.0000      0.0000      0.0000
 Ground to excited state transition velocity quadrupole moments (Au):
       state          XX          YY          ZZ          XY          XZ          YZ
         1         0.0000      0.0000      0.0000      0.0000      0.0000      0.0000
         2         0.0000      0.0000      0.0000      0.0000      0.0000      0.0000
         3         0.0000      0.0000      0.0000      0.0000      0.0000      0.0000
         4         0.0000      0.0000      0.0000      0.0000      0.0000      0.0000
         5         0.0000      0.0000      0.0000      0.0000      0.0000      0.0000
         6         0.0000      0.0000      0.0000      0.0000      0.1909     -0.2302
         7         0.0000      0.0000      0.0000      0.0000     -0.2302     -0.1909
         8         0.0000      0.0000      0.0000      0.0000      0.0000      0.0000
         9         0.0000      0.0000      0.0000      0.0000      0.0000      0.0000
        10         0.0000      0.0000      0.0000      0.0000      0.0000      0.0000
        11         0.1946     -0.1946      0.0000      0.2992      0.0000      0.0000
        12        -0.2992      0.2992      0.0000      0.1946      0.0000      0.0000
 <0|del|b> * <b|rxdel|0> + <0|del|b> * <b|delr+rdel|0>
 Rotatory Strengths (R) in cgs (10**-40 erg-esu-cm/Gauss)
       state          XX          YY          ZZ    R(velocity)    E-M Angle
         1         0.0000      0.0000      0.0000      0.0000       90.00
         2         0.0000      0.0000      0.0000      0.0000       90.00
         3         0.0000      0.0000      0.0000      0.0000       90.00
         4         0.0000      0.0000      0.0000      0.0000       90.00
         5         0.0000      0.0000      0.0000      0.0000       90.00
         6         0.0000      0.0000      0.0000      0.0000       90.00
         7         0.0000      0.0000      0.0000      0.0000       90.00
         8         0.0000      0.0000      0.0000      0.0000       90.00
         9         0.0000      0.0000      0.0000      0.0000       90.00
        10         0.0000      0.0000      0.0000      0.0000       90.00
        11         0.0000      0.0000      0.0000      0.0000       90.00
        12         0.0000      0.0000      0.0000      0.0000       90.00
 1/2[<0|r|b>*<b|rxdel|0> + (<0|rxdel|b>*<b|r|0>)*]
 Rotatory Strengths (R) in cgs (10**-40 erg-esu-cm/Gauss)
       state          XX          YY          ZZ     R(length)
         1         0.0000      0.0000      0.0000      0.0000
         2         0.0000      0.0000      0.0000      0.0000
         3         0.0000      0.0000      0.0000      0.0000
         4         0.0000      0.0000      0.0000      0.0000
         5         0.0000      0.0000      0.0000      0.0000
         6         0.0000      0.0000      0.0000      0.0000
         7         0.0000      0.0000      0.0000      0.0000
         8         0.0000      0.0000      0.0000      0.0000
         9         0.0000      0.0000      0.0000      0.0000
        10         0.0000      0.0000      0.0000      0.0000
        11         0.0000      0.0000      0.0000      0.0000
        12         0.0000      0.0000      0.0000      0.0000
  1/2[<0|del|b>*<b|r|0> + (<0|r|b>*<b|del|0>)*] (Au)
       state          X           Y           Z        Dip. S.   Osc.(frdel)
         1         0.0000      0.0000      0.0000      0.0000      0.0000
         2         0.0000      0.0000      0.0000      0.0000      0.0000
         3         0.0000      0.0000      0.0000      0.0000      0.0000
         4        -0.0110     -0.0355      0.0000      0.0464      0.0310
         5        -0.0355     -0.0110      0.0000      0.0464      0.0310
         6         0.0000      0.0000      0.0000      0.0000      0.0000
         7         0.0000      0.0000      0.0000      0.0000      0.0000
         8        -0.0326     -0.0412      0.0000      0.0737      0.0492
         9        -0.0412     -0.0326      0.0000      0.0737      0.0492
        10         0.0000      0.0000      0.3196     -0.3196     -0.2131
        11         0.0000      0.0000      0.0000      0.0000      0.0000
        12         0.0000      0.0000      0.0000      0.0000      0.0000

 Excitation energies and oscillator strengths:
 
 Excited state symmetry could not be determined.
 Excited State   1:  5.028-?Sym    -0.8576 eV    -1445.77 nm  f=-0.0000  <S**2>=6.069
     21A -> 23A        0.41668
     21A -> 24A        0.57014
     22A -> 23A        0.57014
     22A -> 24A       -0.41668
 This state for optimization and/or second-order correction.
 Total Energy, E(CIS) =  -1293.13802142    
 Copying the excited state density for this state as the 1-particle RhoCI density.
 
 Excited state symmetry could not be determined.
 Excited State   2:  5.028-?Sym    -0.8576 eV    -1445.77 nm  f=-0.0000  <S**2>=6.069
     21A -> 23A       -0.57014
     21A -> 24A        0.41668
     22A -> 23A        0.41668
     22A -> 24A        0.57014
 
 Excited state symmetry could not be determined.
 Excited State   3:  5.027-?Sym    -0.8086 eV    -1533.22 nm  f=-0.0000  <S**2>=6.067
     21A -> 23A        0.60498
     21A -> 24A       -0.36437
     22A -> 23A        0.36437
     22A -> 24A        0.60498
 
 Excited state symmetry could not be determined.
 Excited State   4:  5.190-?Sym    1.4668 eV  845.25 nm  f=0.0045  <S**2>=6.484
     16A -> 27A       -0.13771
     16A -> 29A        0.15696
     19A -> 23A       -0.76840
     19A -> 24A        0.47266
     20A -> 27A       -0.23647
     20A -> 29A        0.25660
 
 Excited state symmetry could not be determined.
 Excited State   5:  5.190-?Sym    1.4668 eV  845.25 nm  f=0.0045  <S**2>=6.484
     16A -> 26A        0.13771
     16A -> 30A        0.15696
     19A -> 23A        0.47266
     19A -> 24A        0.76840
     20A -> 26A        0.23647
     20A -> 30A        0.25660
 
 Excited state symmetry could not be determined.
 Excited State   6:  5.145-?Sym    2.2185 eV  558.87 nm  f=0.0000  <S**2>=6.367
     16A -> 23A       -0.31045
     16A -> 24A        0.11925
     19A -> 27A       -0.33313
     19A -> 29A        0.33695
     20A -> 23A       -0.75338
     20A -> 24A        0.28940
 
 Excited state symmetry could not be determined.
 Excited State   7:  5.145-?Sym    2.2185 eV  558.87 nm  f=0.0000  <S**2>=6.367
     16A -> 23A        0.11925
     16A -> 24A        0.31045
     19A -> 26A        0.33313
     19A -> 30A        0.33695
     20A -> 23A        0.28940
     20A -> 24A        0.75338
 
 Excited state symmetry could not be determined.
 Excited State   8:  5.375-?Sym    2.2805 eV  543.66 nm  f=0.1040  <S**2>=6.974
     21A -> 25A       -0.20086
     22A -> 25A        0.94088
     22A -> 31A        0.25504
 
 Excited state symmetry could not be determined.
 Excited State   9:  5.375-?Sym    2.2805 eV  543.66 nm  f=0.1040  <S**2>=6.974
     21A -> 25A        0.94088
     21A -> 31A        0.25504
     22A -> 25A        0.20086
 
 Excited state symmetry could not be determined.
 Excited State  10:  5.073-?Sym    3.7973 eV  326.51 nm  f=0.7259  <S**2>=6.183
     19A -> 25A       -0.24701
     19A -> 31A       -0.21154
     21A -> 23A        0.33736
     21A -> 24A        0.56014
     22A -> 23A       -0.56014
     22A -> 24A        0.33736
 
 Excited state symmetry could not be determined.
 Excited State  11:  5.267-?Sym    3.9059 eV  317.43 nm  f=0.0000  <S**2>=6.686
     21A -> 26A        0.56888
     21A -> 27A        0.22298
     21A -> 30A        0.34742
     22A -> 26A       -0.22298
     22A -> 27A        0.56888
     22A -> 29A       -0.34742
 
 Excited state symmetry could not be determined.
 Excited State  12:  5.267-?Sym    3.9059 eV  317.43 nm  f=0.0000  <S**2>=6.686
     21A -> 26A        0.22298
     21A -> 27A       -0.56888
     21A -> 29A        0.34742
     22A -> 26A        0.56888
     22A -> 27A        0.22298
     22A -> 30A        0.34742
 SavETr:  write IOETrn=   770 NScale= 10 NData=  16 NLR=1 NState=   12 LETran=     226.
 Leave Link  914 at Wed Oct 28 10:10:37 2015, MaxMem=    33554432 cpu:               0.5 elap:               0.5
 (Enter /home/gauss/gdvi03p/gdv/l601.exe)
 Copying SCF densities to generalized density rwf, IOpCl= 1 IROHF=0.

 **********************************************************************

            Population analysis using the SCF density.

 **********************************************************************

 Alpha  occ. eigenvalues -- -239.09038 -29.13049 -24.79356 -24.79356 -24.78787
 Alpha  occ. eigenvalues --  -20.52892 -20.52846  -4.08090  -2.77136  -2.77136
 Alpha  occ. eigenvalues --   -2.76733  -1.16138  -1.13107  -0.67076  -0.67076
 Alpha  occ. eigenvalues --   -0.66519  -0.66236  -0.66236  -0.50300  -0.48199
 Alpha  occ. eigenvalues --   -0.25512  -0.25512
 Alpha virt. eigenvalues --    0.01542   0.01542   0.02964   0.09352   0.09352
 Alpha virt. eigenvalues --    0.10733   0.21015   0.21015   0.23523   0.37684
 Alpha virt. eigenvalues --    1.30621   1.79141   1.79141   1.87017   1.88353
 Alpha virt. eigenvalues --    1.88353   1.93025   2.48779   2.53077   2.53077
 Alpha virt. eigenvalues --    2.62680   2.62680   3.04670   3.35002  19.12853
  Beta  occ. eigenvalues -- -239.08701 -29.00589 -24.67834 -24.67251 -24.67251
  Beta  occ. eigenvalues --  -20.59072 -20.59023  -3.67992  -2.30164  -2.28146
  Beta  occ. eigenvalues --   -2.28146  -1.39818  -1.38363  -0.66150  -0.66150
  Beta  occ. eigenvalues --   -0.66018  -0.66018  -0.64585  -0.60527
  Beta virt. eigenvalues --    0.03201   0.06651   0.06651   0.10866   0.19418
  Beta virt. eigenvalues --    0.23629   0.23629   0.33677   0.33677   0.33736
  Beta virt. eigenvalues --    0.33736   0.39320   0.43502   1.41941   1.63869
  Beta virt. eigenvalues --    1.63869   1.71513   1.71513   1.82024   1.90130
  Beta virt. eigenvalues --    2.51724   2.81280   2.81280   2.87332   2.87332
  Beta virt. eigenvalues --    2.96204   3.43558  19.17056
          Condensed to atoms (all electrons):
               1          2          3
     1  Mn  24.002625   0.216046   0.216046
     2  O    0.216046   8.066742  -0.000146
     3  O    0.216046  -0.000146   8.066742
          Atomic-Atomic Spin Densities.
               1          2          3
     1  Mn   5.835937   0.136317   0.136317
     2  O    0.136317  -1.690554  -0.000048
     3  O    0.136317  -0.000048  -1.690554
 Mulliken charges and spin densities:
               1          2
     1  Mn   0.565284   6.108571
     2  O   -0.282642  -1.554285
     3  O   -0.282642  -1.554285
 Sum of Mulliken charges =   0.00000   3.00000
 Mulliken charges and spin densities with hydrogens summed into heavy atoms:
               1          2
     1  Mn   0.565284   6.108571
     2  O   -0.282642  -1.554285
     3  O   -0.282642  -1.554285
 Electronic spatial extent (au):  <R**2>=            260.8600
 Charge=              0.0000 electrons
 Dipole moment (field-independent basis, Debye):
    X=              0.0000    Y=              0.0000    Z=              0.0000  Tot=              0.0000
 Quadrupole moment (field-independent basis, Debye-Ang):
   XX=            -27.0216   YY=            -27.0216   ZZ=            -36.4853
   XY=              0.0000   XZ=              0.0000   YZ=              0.0000
 Traceless Quadrupole moment (field-independent basis, Debye-Ang):
   XX=              3.1546   YY=              3.1546   ZZ=             -6.3091
   XY=              0.0000   XZ=              0.0000   YZ=              0.0000
 Octapole moment (field-independent basis, Debye-Ang**2):
  XXX=              0.0000  YYY=              0.0000  ZZZ=              0.0000  XYY=              0.0000
  XXY=              0.0000  XXZ=              0.0000  XZZ=              0.0000  YZZ=              0.0000
  YYZ=              0.0000  XYZ=              0.0000
 Hexadecapole moment (field-independent basis, Debye-Ang**3):
 XXXX=            -48.6247 YYYY=            -48.6247 ZZZZ=           -301.8590 XXXY=              0.0000
 XXXZ=              0.0000 YYYX=              0.0000 YYYZ=              0.0000 ZZZX=              0.0000
 ZZZY=              0.0000 XXYY=            -16.2082 XXZZ=            -48.6536 YYZZ=            -48.6536
 XXYZ=              0.0000 YYXZ=              0.0000 ZZXY=              0.0000
 N-N= 1.242059643306D+02 E-N=-3.320672804536D+03  KE= 1.289729129517D+03
 Leave Link  601 at Wed Oct 28 10:10:37 2015, MaxMem=    33554432 cpu:               0.0 elap:               0.0
 (Enter /home/gauss/gdvi03p/gdv/l9999.exe)
 Unable to Open any file for archive entry.
 1\1\GINC-MEDUSA\SP\UCIS-Full\3-21G\Mn1O2(4)\PLESTRAN\28-Oct-2015\0\\#p
  uhf/3-21G nosymm cis(full,nstates=12)\\MnO2 3-21G\\0,4\Mn,0,0.,0.,0.\
 O,0,0.,0.,1.840528\O,0,0.,0.,-1.840528\\Version=ES64L-GDVRevI.03+\HF=-
 1293.1065064\MP2=-1293.4683242\PUHF=-1293.1621279\PMP2-0=-1293.5231559
 \EFC=0.\S2=6.313674\S2-1=6.13241\S2A=8.274667\RMSD=6.204e-10\PG=D*H [O
 (Mn1),C*(O1.O1)]\\@
 The archive entry for this job was punched.


 WHEN YOU'VE SEEN ONE NUCLEAR WAR YOU'VE SEEN THEM ALL.
 Job cpu time:       0 days  0 hours  0 minutes  2.6 seconds.
 Elapsed time:       0 days  0 hours  0 minutes  2.4 seconds.
 File lengths (MBytes):  RWF=     49 Int=      0 D2E=      0 Chk=      3 Scr=      1
 Normal termination of Gaussian DV at Wed Oct 28 10:10:38 2015.
