 Entering Gaussian System, Link 0=gdv
 Input=MnO2_cc-pVDZ.com
 Output=MnO2_cc-pVDZ.log
 Initial command:
 /home/gauss/gdvi01p/gdv/l1.exe "/home/GauScr/Gau-32726.inp" -scrdir="/home/GauScr/"
 Entering Link 1 = /home/gauss/gdvi01p/gdv/l1.exe PID=     32727.
  
 Copyright (c) 1988,1990,1992,1993,1995,1998,2003,2009,2014,
            Gaussian, Inc.  All Rights Reserved.
  
 This is the private, development version of
 the Gaussian(R) DV system of programs. It is based on
 the Gaussian(R) 09 system (copyright 2009, Gaussian, Inc.),
 the Gaussian(R) 03 system (copyright 2003, Gaussian, Inc.),
 the Gaussian(R) 98 system (copyright 1998, Gaussian, Inc.),
 the Gaussian(R) 94 system (copyright 1995, Gaussian, Inc.),
 the Gaussian 92(TM) system (copyright 1992, Gaussian, Inc.),
 the Gaussian 90(TM) system (copyright 1990, Gaussian, Inc.),
 the Gaussian 88(TM) system (copyright 1988, Gaussian, Inc.),
 the Gaussian 86(TM) system (copyright 1986, Carnegie Mellon
 University), and the Gaussian 82(TM) system (copyright 1983,
 Carnegie Mellon University). Gaussian is a federally registered
 trademark of Gaussian, Inc.
  
 This software contains proprietary and confidential information,
 including trade secrets, belonging to Gaussian, Inc.
  
 This software is provided under written license and may be
 used, copied, transmitted, or stored only in accord with that
 written license.
  
 The following legend is applicable only to US Government
 contracts under FAR:
  
                    RESTRICTED RIGHTS LEGEND
  
 Use, reproduction and disclosure by the US Government is
 subject to restrictions as set forth in subparagraphs (a)
 and (c) of the Commercial Computer Software - Restricted
 Rights clause in FAR 52.227-19.
  
 Gaussian, Inc.
 340 Quinnipiac St., Bldg. 40, Wallingford CT 06492
  
  
 ---------------------------------------------------------------
 Warning -- This program may not be used in any manner that
 competes with the business of Gaussian, Inc. or will provide
 assistance to any competitor of Gaussian, Inc.  The licensee
 of this program is prohibited from giving any competitor of
 Gaussian, Inc. access to this program.  By using this program,
 the user acknowledges that Gaussian, Inc. is engaged in the
 business of creating and licensing software in the field of
 computational chemistry and represents and warrants to the
 licensee that it is not a competitor of Gaussian, Inc. and that
 it will not use this program in any manner prohibited above.
 ---------------------------------------------------------------
  

 Cite this work as:
 Gaussian Development Version, Revision I.01+,
 M. J. Frisch, G. W. Trucks, H. B. Schlegel, G. E. Scuseria, 
 M. A. Robb, J. R. Cheeseman, G. Scalmani, V. Barone, B. Mennucci, 
 G. A. Petersson, H. Nakatsuji, M. Caricato, X. Li, H. P. Hratchian, 
 A. F. Izmaylov, J. Bloino, B. G. Janesko, F. Lipparini, G. Zheng, 
 J. L. Sonnenberg, W. Liang, M. Hada, M. Ehara, K. Toyota, R. Fukuda, 
 J. Hasegawa, M. Ishida, T. Nakajima, Y. Honda, O. Kitao, H. Nakai, 
 T. Vreven, J. A. Montgomery, Jr., J. E. Peralta, F. Ogliaro, 
 M. Bearpark, J. J. Heyd, E. Brothers, K. N. Kudin, V. N. Staroverov, 
 T. Keith, R. Kobayashi, J. Normand, K. Raghavachari, A. Rendell, 
 J. C. Burant, S. S. Iyengar, J. Tomasi, M. Cossi, N. Rega, 
 J. M. Millam, M. Klene, J. E. Knox, J. B. Cross, V. Bakken, 
 C. Adamo, J. Jaramillo, R. Gomperts, R. E. Stratmann, O. Yazyev, 
 A. J. Austin, R. Cammi, C. Pomelli, J. W. Ochterski, R. L. Martin, 
 K. Morokuma, V. G. Zakrzewski, G. A. Voth, P. Salvador, 
 J. J. Dannenberg, S. Dapprich, P. V. Parandekar, N. J. Mayhall, 
 A. D. Daniels, O. Farkas, J. B. Foresman, J. V. Ortiz, 
 J. Cioslowski, and D. J. Fox, Gaussian, Inc., Wallingford CT, 2010.
 
 *******************************************
 Gaussian DV:  ES64L-GDVRevI.01+ 11-Sep-2014
                 22-Sep-2015 
 *******************************************
 ---------------------
 #p uhf/cc-pVDZ nosymm
 ---------------------
 1/38=1,172=1/1;
 2/12=2,15=1,17=6,18=5,40=1/2;
 3/5=16,11=2,25=1,30=1,116=2/1,2,3;
 4//1;
 5/5=2,38=5/2;
 6/7=2,8=2,9=2,10=2,28=1/1;
 99/5=1,9=1/99;
 Leave Link    1 at Tue Sep 22 13:39:29 2015, MaxMem=           0 cpu:               0.0 elap:               0.0
 (Enter /home/gauss/gdvi01p/gdv/l101.exe)
 ------------
 MnO2 cc-pVDZ
 ------------
 Symbolic Z-matrix:
 Charge =  0 Multiplicity = 4
 Mn                    0.        0.        0. 
 O                     0.        0.        1.84053 
 O                     0.        0.       -1.84053 
 
 ITRead=  0  0  0
 MicOpt= -1 -1 -1
 NAtoms=      3 NQM=        3 NQMF=       0 NMMI=      0 NMMIF=      0
                NMic=       0 NMicF=      0.
                    Isotopes and Nuclear Properties:
 (Nuclear quadrupole moments (NQMom) in fm**2, nuclear magnetic moments (NMagM)
  in nuclear magnetons)

  Atom         1           2           3
 IAtWgt=          55          16          16
 AtmWgt=  54.9380463  15.9949146  15.9949146
 NucSpn=           5           0           0
 AtZEff=   0.0000000   0.0000000   0.0000000
 NQMom=   33.0000000   0.0000000   0.0000000
 NMagM=    3.4532000   0.0000000   0.0000000
 AtZNuc=  25.0000000   8.0000000   8.0000000
 Leave Link  101 at Tue Sep 22 13:39:29 2015, MaxMem=    33554432 cpu:               0.1 elap:               0.1
 (Enter /home/gauss/gdvi01p/gdv/l202.exe)
                          Input orientation:                          
 ---------------------------------------------------------------------
 Center     Atomic      Atomic             Coordinates (Angstroms)
 Number     Number       Type             X           Y           Z
 ---------------------------------------------------------------------
      1         25           0        0.000000    0.000000    0.000000
      2          8           0        0.000000    0.000000    1.840528
      3          8           0        0.000000    0.000000   -1.840528
 ---------------------------------------------------------------------
                    Distance matrix (angstroms):
                    1          2          3
     1  Mn   0.000000
     2  O    1.840528   0.000000
     3  O    1.840528   3.681056   0.000000
 Symmetry turned off by external request.
 Stoichiometry    MnO2(4)
 Framework group  D*H[O(Mn),C*(O.O)]
 Deg. of freedom     1
 Full point group                 D*H     NOp   8
 Rotational constants (GHZ):      0.0000000      4.6635906      4.6635906
 Leave Link  202 at Tue Sep 22 13:39:29 2015, MaxMem=    33554432 cpu:               0.0 elap:               0.0
 (Enter /home/gauss/gdvi01p/gdv/l301.exe)
 Standard basis: CC-pVDZ (5D, 7F)
 Ernie: Thresh=  0.10000D-02 Tol=  0.10000D-05 Strict=F.
 Ernie:  69 primitive shells out of 229 were deleted.
    71 basis functions,   354 primitive gaussians,    79 cartesian basis functions
    22 alpha electrons       19 beta electrons
       nuclear repulsion energy       124.2059643306 Hartrees.
 IExCor=    0 DFT=F Ex=HF Corr=None ExCW=0 ScaHFX=  1.000000
 ScaDFX=  1.000000  1.000000  1.000000  1.000000 ScalE2=  1.000000  1.000000
 IRadAn=      0 IRanWt=     -1 IRanGd=            0 ICorTp=0 IEmpDi=  4
 NAtoms=    3 NActive=    3 NUniq=    3 SFac= 1.00D+00 NAtFMM=   60 NAOKFM=F Big=F
 Integral buffers will be    131072 words long.
 Raffenetti 2 integral format.
 Two-electron integral symmetry is turned off.
 Leave Link  301 at Tue Sep 22 13:39:29 2015, MaxMem=    33554432 cpu:               0.0 elap:               0.1
 (Enter /home/gauss/gdvi01p/gdv/l302.exe)
 NPDir=0 NMtPBC=     1 NCelOv=     1 NCel=       1 NClECP=     1 NCelD=      1
         NCelK=      1 NCelE2=     1 NClLst=     1 CellRange=     0.0.
 One-electron integrals computed using PRISM.
 One-electron integral symmetry used in STVInt
 NBasis=    71 RedAO= T EigKep=  1.11D-02  NBF=    71
 NBsUse=    71 1.00D-06 EigRej= -1.00D+00 NBFU=    71
 Leave Link  302 at Tue Sep 22 13:39:29 2015, MaxMem=    33554432 cpu:               0.1 elap:               0.1
 (Enter /home/gauss/gdvi01p/gdv/l303.exe)
 DipDrv:  MaxL=1.
 Leave Link  303 at Tue Sep 22 13:39:29 2015, MaxMem=    33554432 cpu:               0.0 elap:               0.0
 (Enter /home/gauss/gdvi01p/gdv/l401.exe)
 ExpMin= 2.96D-02 ExpMax= 3.96D+06 ExpMxC= 4.50D+03 IAcc=3 IRadAn=         5 AccDes= 0.00D+00
 Harris functional with IExCor=  205 and IRadAn=       5 diagonalized for initial guess.
 HarFok:  IExCor=  205 AccDes= 0.00D+00 IRadAn=         5 IDoV= 1 UseB2=F ITyADJ=14
 ICtDFT=  3500011 ScaDFX=  1.000000  1.000000  1.000000  1.000000
 FoFCou: FMM=F IPFlag=           0 FMFlag=      100000 FMFlg1=           0
         NFxFlg=           0 DoJE=T BraDBF=F KetDBF=T FulRan=T
         wScrn=  0.000000 ICntrl=       500 IOpCl=  0 I1Cent=   200000004 NGrid=           0
         NMat0=    1 NMatS0=      1 NMatT0=    0 NMatD0=    1 NMtDS0=    0 NMtDT0=    0
 Symmetry not used in FoFCou.
 Harris En= -1298.92760200917    
 JPrj=0 DoOrth=F DoCkMO=F.
 Initial guess <Sx>= 0.0000 <Sy>= 0.0000 <Sz>= 1.5000 <S**2>= 3.7500 S= 1.5000
 Leave Link  401 at Tue Sep 22 13:39:30 2015, MaxMem=    33554432 cpu:               0.5 elap:               0.5
 (Enter /home/gauss/gdvi01p/gdv/l502.exe)
 Keep R1 and R2 ints in memory in canonical form, NReq=9673094.
 FoFCou: FMM=F IPFlag=           0 FMFlag=           0 FMFlg1=           0
         NFxFlg=           0 DoJE=F BraDBF=F KetDBF=F FulRan=T
         wScrn=  0.000000 ICntrl=       600 IOpCl=  0 I1Cent=           0 NGrid=           0
         NMat0=    1 NMatS0=   2556 NMatT0=    0 NMatD0=    1 NMtDS0=    0 NMtDT0=    0
 Symmetry not used in FoFCou.
 Two-electron integral symmetry not used.
 UHF open shell SCF:
 Using DIIS extrapolation, IDIIS=  1040.
 NGot=    33554432 LenX=    27005136 LenY=    26998454
 Requested convergence on RMS density matrix=1.00D-08 within 128 cycles.
 Requested convergence on MAX density matrix=1.00D-06.
 Requested convergence on             energy=1.00D-06.
 No special actions if energy rises.

 Cycle   1  Pass 1  IDiag  1:
 E= -1297.99925625709    
 DIIS: error= 1.76D-01 at cycle   1 NSaved=   1.
 NSaved= 1 IEnMin= 1 EnMin= -1297.99925625709     IErMin= 1 ErrMin= 1.76D-01
 ErrMax= 1.76D-01  0.00D+00 EMaxC= 1.00D-01 BMatC= 6.36D+00 BMatP= 6.36D+00
 IDIUse=3 WtCom= 0.00D+00 WtEn= 1.00D+00
 Coeff-Com:  0.100D+01
 Coeff-En:   0.100D+01
 Coeff:      0.100D+01
 Gap=     0.355 Goal=   None    Shift=    0.000
 Gap=    -0.499 Goal=   None    Shift=    0.000
 GapD=   -0.499 DampG=0.250 DampE=0.125 DampFc=0.1250 IDamp=-1.
 Damping current iteration by 1.25D-01
 RMSDP=4.16D-02 MaxDP=8.15D-01              OVMax= 1.00D+00

 Cycle   2  Pass 1  IDiag  1:
 E= -1298.35619357146     Delta-E=       -0.356937314376 Rises=F Damp=T
 DIIS: error= 8.38D-02 at cycle   2 NSaved=   2.
 NSaved= 2 IEnMin= 2 EnMin= -1298.35619357146     IErMin= 2 ErrMin= 8.38D-02
 ErrMax= 8.38D-02  0.00D+00 EMaxC= 1.00D-01 BMatC= 1.62D+00 BMatP= 6.36D+00
 IDIUse=3 WtCom= 1.62D-01 WtEn= 8.38D-01
 Coeff-Com: -0.862D+00 0.186D+01
 Coeff-En:   0.000D+00 0.100D+01
 Coeff:     -0.140D+00 0.114D+01
 Gap=     0.171 Goal=   None    Shift=    0.000
 Gap=    -0.074 Goal=   None    Shift=    0.000
 RMSDP=1.45D-02 MaxDP=2.62D-01 DE=-3.57D-01 OVMax= 1.00D+00

 Cycle   3  Pass 1  IDiag  1:
 E= -1298.39911696563     Delta-E=       -0.042923394171 Rises=F Damp=F
 DIIS: error= 1.77D-01 at cycle   3 NSaved=   3.
 NSaved= 3 IEnMin= 3 EnMin= -1298.39911696563     IErMin= 2 ErrMin= 8.38D-02
 ErrMax= 1.77D-01  0.00D+00 EMaxC= 1.00D-01 BMatC= 4.69D+00 BMatP= 1.62D+00
 IDIUse=2 WtCom= 0.00D+00 WtEn= 1.00D+00
 EnCoef did   100 forward-backward iterations
 Coeff-En:   0.420D+00 0.714D-02 0.573D+00
 Coeff:      0.420D+00 0.714D-02 0.573D+00
 Gap=     0.303 Goal=   None    Shift=    0.000
 Gap=     0.588 Goal=   None    Shift=    0.000
 RMSDP=9.26D-03 MaxDP=2.22D-01 DE=-4.29D-02 OVMax= 3.48D-01

 Cycle   4  Pass 1  IDiag  1:
 E= -1299.15788881889     Delta-E=       -0.758771853259 Rises=F Damp=F
 DIIS: error= 4.63D-02 at cycle   4 NSaved=   4.
 NSaved= 4 IEnMin= 4 EnMin= -1299.15788881889     IErMin= 4 ErrMin= 4.63D-02
 ErrMax= 4.63D-02  0.00D+00 EMaxC= 1.00D-01 BMatC= 2.39D-01 BMatP= 1.62D+00
 IDIUse=3 WtCom= 5.37D-01 WtEn= 4.63D-01
 Coeff-Com: -0.425D+00 0.529D+00-0.116D-01 0.908D+00
 Coeff-En:   0.000D+00 0.000D+00 0.286D-01 0.971D+00
 Coeff:     -0.228D+00 0.284D+00 0.704D-02 0.937D+00
 Gap=     0.281 Goal=   None    Shift=    0.000
 Gap=     0.391 Goal=   None    Shift=    0.000
 RMSDP=3.34D-03 MaxDP=8.27D-02 DE=-7.59D-01 OVMax= 1.40D-01

 Cycle   5  Pass 1  IDiag  1:
 E= -1299.22310937208     Delta-E=       -0.065220553187 Rises=F Damp=F
 DIIS: error= 2.87D-02 at cycle   5 NSaved=   5.
 NSaved= 5 IEnMin= 5 EnMin= -1299.22310937208     IErMin= 5 ErrMin= 2.87D-02
 ErrMax= 2.87D-02  0.00D+00 EMaxC= 1.00D-01 BMatC= 5.76D-02 BMatP= 2.39D-01
 IDIUse=3 WtCom= 7.13D-01 WtEn= 2.87D-01
 Coeff-Com: -0.311D+00 0.417D+00-0.578D-01 0.526D+00 0.425D+00
 Coeff-En:   0.000D+00 0.000D+00 0.000D+00 0.000D+00 0.100D+01
 Coeff:     -0.222D+00 0.297D+00-0.412D-01 0.375D+00 0.590D+00
 Gap=     0.308 Goal=   None    Shift=    0.000
 Gap=     0.443 Goal=   None    Shift=    0.000
 RMSDP=2.25D-03 MaxDP=4.40D-02 DE=-6.52D-02 OVMax= 1.03D-01

 Cycle   6  Pass 1  IDiag  1:
 E= -1299.23459412743     Delta-E=       -0.011484755349 Rises=F Damp=F
 DIIS: error= 4.24D-02 at cycle   6 NSaved=   6.
 NSaved= 6 IEnMin= 6 EnMin= -1299.23459412743     IErMin= 5 ErrMin= 2.87D-02
 ErrMax= 4.24D-02  0.00D+00 EMaxC= 1.00D-01 BMatC= 1.09D-01 BMatP= 5.76D-02
 IDIUse=2 WtCom= 0.00D+00 WtEn= 1.00D+00
 Coeff-En:   0.000D+00 0.000D+00 0.000D+00 0.000D+00 0.184D+00 0.816D+00
 Coeff:      0.000D+00 0.000D+00 0.000D+00 0.000D+00 0.184D+00 0.816D+00
 Gap=     0.232 Goal=   None    Shift=    0.000
 Gap=     0.427 Goal=   None    Shift=    0.000
 RMSDP=3.69D-03 MaxDP=1.39D-01 DE=-1.15D-02 OVMax= 2.03D-01

 Cycle   7  Pass 1  IDiag  1:
 E= -1299.26670280236     Delta-E=       -0.032108674929 Rises=F Damp=F
 DIIS: error= 5.16D-02 at cycle   7 NSaved=   7.
 NSaved= 7 IEnMin= 7 EnMin= -1299.26670280236     IErMin= 5 ErrMin= 2.87D-02
 ErrMax= 5.16D-02  0.00D+00 EMaxC= 1.00D-01 BMatC= 2.42D-01 BMatP= 5.76D-02
 IDIUse=2 WtCom= 0.00D+00 WtEn= 1.00D+00
 Coeff-En:   0.000D+00 0.000D+00 0.000D+00 0.000D+00 0.000D+00 0.103D+00
 Coeff-En:   0.897D+00
 Coeff:      0.000D+00 0.000D+00 0.000D+00 0.000D+00 0.000D+00 0.103D+00
 Coeff:      0.897D+00
 Gap=     0.281 Goal=   None    Shift=    0.000
 Gap=     0.578 Goal=   None    Shift=    0.000
 RMSDP=5.25D-03 MaxDP=1.06D-01 DE=-3.21D-02 OVMax= 1.67D-01

 Cycle   8  Pass 1  IDiag  1:
 E= -1299.29817263024     Delta-E=       -0.031469827880 Rises=F Damp=F
 DIIS: error= 5.57D-02 at cycle   8 NSaved=   8.
 NSaved= 8 IEnMin= 8 EnMin= -1299.29817263024     IErMin= 5 ErrMin= 2.87D-02
 ErrMax= 5.57D-02  0.00D+00 EMaxC= 1.00D-01 BMatC= 2.43D-01 BMatP= 5.76D-02
 IDIUse=2 WtCom= 0.00D+00 WtEn= 1.00D+00
 Coeff-En:   0.000D+00 0.000D+00 0.000D+00 0.000D+00 0.000D+00 0.000D+00
 Coeff-En:   0.275D+00 0.725D+00
 Coeff:      0.000D+00 0.000D+00 0.000D+00 0.000D+00 0.000D+00 0.000D+00
 Coeff:      0.275D+00 0.725D+00
 Gap=     0.216 Goal=   None    Shift=    0.000
 Gap=     0.493 Goal=   None    Shift=    0.000
 RMSDP=4.28D-03 MaxDP=1.40D-01 DE=-3.15D-02 OVMax= 1.94D-01

 Cycle   9  Pass 1  IDiag  1:
 E= -1299.36071267933     Delta-E=       -0.062540049089 Rises=F Damp=F
 DIIS: error= 3.63D-02 at cycle   9 NSaved=   9.
 NSaved= 9 IEnMin= 9 EnMin= -1299.36071267933     IErMin= 5 ErrMin= 2.87D-02
 ErrMax= 3.63D-02  0.00D+00 EMaxC= 1.00D-01 BMatC= 1.59D-01 BMatP= 5.76D-02
 IDIUse=2 WtCom= 0.00D+00 WtEn= 1.00D+00
 Coeff-En:   0.000D+00 0.000D+00 0.000D+00 0.000D+00 0.000D+00 0.000D+00
 Coeff-En:   0.000D+00 0.000D+00 0.100D+01
 Coeff:      0.000D+00 0.000D+00 0.000D+00 0.000D+00 0.000D+00 0.000D+00
 Coeff:      0.000D+00 0.000D+00 0.100D+01
 Gap=     0.246 Goal=   None    Shift=    0.000
 Gap=     0.627 Goal=   None    Shift=    0.000
 RMSDP=4.55D-03 MaxDP=9.64D-02 DE=-6.25D-02 OVMax= 1.11D-01

 Cycle  10  Pass 1  IDiag  1:
 E= -1299.39027876762     Delta-E=       -0.029566088292 Rises=F Damp=F
 DIIS: error= 3.42D-02 at cycle  10 NSaved=  10.
 NSaved=10 IEnMin=10 EnMin= -1299.39027876762     IErMin= 5 ErrMin= 2.87D-02
 ErrMax= 3.42D-02  0.00D+00 EMaxC= 1.00D-01 BMatC= 1.13D-01 BMatP= 5.76D-02
 IDIUse=2 WtCom= 0.00D+00 WtEn= 1.00D+00
 Coeff-En:   0.000D+00 0.000D+00 0.000D+00 0.000D+00 0.000D+00 0.000D+00
 Coeff-En:   0.000D+00 0.000D+00 0.000D+00 0.100D+01
 Coeff:      0.000D+00 0.000D+00 0.000D+00 0.000D+00 0.000D+00 0.000D+00
 Coeff:      0.000D+00 0.000D+00 0.000D+00 0.100D+01
 Gap=     0.217 Goal=   None    Shift=    0.000
 Gap=     0.523 Goal=   None    Shift=    0.000
 RMSDP=3.88D-03 MaxDP=1.04D-01 DE=-2.96D-02 OVMax= 1.40D-01

 Cycle  11  Pass 1  IDiag  1:
 E= -1299.41116363388     Delta-E=       -0.020884866263 Rises=F Damp=F
 DIIS: error= 2.29D-02 at cycle  11 NSaved=  11.
 NSaved=11 IEnMin=11 EnMin= -1299.41116363388     IErMin=11 ErrMin= 2.29D-02
 ErrMax= 2.29D-02  0.00D+00 EMaxC= 1.00D-01 BMatC= 1.34D-01 BMatP= 5.76D-02
 IDIUse=2 WtCom= 0.00D+00 WtEn= 1.00D+00
 Coeff-En:   0.000D+00 0.000D+00 0.000D+00 0.000D+00 0.000D+00 0.000D+00
 Coeff-En:   0.000D+00 0.000D+00 0.000D+00 0.181D+00 0.819D+00
 Coeff:      0.000D+00 0.000D+00 0.000D+00 0.000D+00 0.000D+00 0.000D+00
 Coeff:      0.000D+00 0.000D+00 0.000D+00 0.181D+00 0.819D+00
 Gap=     0.231 Goal=   None    Shift=    0.000
 Gap=     0.619 Goal=   None    Shift=    0.000
 RMSDP=3.38D-03 MaxDP=7.21D-02 DE=-2.09D-02 OVMax= 5.73D-02

 Cycle  12  Pass 1  IDiag  1:
 E= -1299.43346900630     Delta-E=       -0.022305372420 Rises=F Damp=F
 DIIS: error= 1.59D-02 at cycle  12 NSaved=  12.
 NSaved=12 IEnMin=12 EnMin= -1299.43346900630     IErMin=12 ErrMin= 1.59D-02
 ErrMax= 1.59D-02  0.00D+00 EMaxC= 1.00D-01 BMatC= 3.16D-02 BMatP= 5.76D-02
 IDIUse=3 WtCom= 8.41D-01 WtEn= 1.59D-01
 Coeff-Com:  0.160D-01-0.105D-01-0.329D-01-0.113D+00 0.875D+00-0.919D+00
 Coeff-Com: -0.274D+00 0.186D+01-0.809D-01-0.356D+01 0.113D+00 0.313D+01
 Coeff-En:   0.000D+00 0.000D+00 0.000D+00 0.000D+00 0.000D+00 0.000D+00
 Coeff-En:   0.000D+00 0.000D+00 0.000D+00 0.000D+00 0.000D+00 0.100D+01
 Coeff:      0.135D-01-0.886D-02-0.277D-01-0.951D-01 0.736D+00-0.773D+00
 Coeff:     -0.230D+00 0.156D+01-0.680D-01-0.299D+01 0.951D-01 0.279D+01
 Gap=     0.222 Goal=   None    Shift=    0.000
 Gap=     0.605 Goal=   None    Shift=    0.000
 RMSDP=1.94D-03 MaxDP=5.01D-02 DE=-2.23D-02 OVMax= 8.94D-02

 Cycle  13  Pass 1  IDiag  1:
 E= -1299.44810395817     Delta-E=       -0.014634951872 Rises=F Damp=F
 DIIS: error= 5.03D-03 at cycle  13 NSaved=  13.
 NSaved=13 IEnMin=13 EnMin= -1299.44810395817     IErMin=13 ErrMin= 5.03D-03
 ErrMax= 5.03D-03  0.00D+00 EMaxC= 1.00D-01 BMatC= 3.47D-03 BMatP= 3.16D-02
 IDIUse=3 WtCom= 9.50D-01 WtEn= 5.03D-02
 Coeff-Com:  0.122D-01-0.107D-01-0.970D-02-0.154D-01 0.291D+00-0.341D+00
 Coeff-Com: -0.351D-02 0.448D+00-0.324D+00-0.744D+00 0.773D-01 0.581D+00
 Coeff-Com:  0.104D+01
 Coeff-En:   0.000D+00 0.000D+00 0.000D+00 0.000D+00 0.000D+00 0.000D+00
 Coeff-En:   0.000D+00 0.000D+00 0.000D+00 0.000D+00 0.000D+00 0.000D+00
 Coeff-En:   0.100D+01
 Coeff:      0.116D-01-0.102D-01-0.921D-02-0.147D-01 0.276D+00-0.324D+00
 Coeff:     -0.333D-02 0.425D+00-0.308D+00-0.707D+00 0.734D-01 0.551D+00
 Coeff:      0.104D+01
 Gap=     0.232 Goal=   None    Shift=    0.000
 Gap=     0.628 Goal=   None    Shift=    0.000
 RMSDP=1.14D-03 MaxDP=2.37D-02 DE=-1.46D-02 OVMax= 3.73D-02

 Cycle  14  Pass 1  IDiag  1:
 E= -1299.45072659290     Delta-E=       -0.002622634725 Rises=F Damp=F
 DIIS: error= 7.26D-04 at cycle  14 NSaved=  14.
 NSaved=14 IEnMin=14 EnMin= -1299.45072659290     IErMin=14 ErrMin= 7.26D-04
 ErrMax= 7.26D-04  0.00D+00 EMaxC= 1.00D-01 BMatC= 9.37D-05 BMatP= 3.47D-03
 IDIUse=3 WtCom= 9.93D-01 WtEn= 7.26D-03
 Coeff-Com: -0.150D-01 0.176D-01 0.338D-02 0.303D-01-0.372D+00 0.343D+00
 Coeff-Com:  0.354D+00-0.344D+00-0.345D+00 0.355D+00 0.151D+00-0.167D+00
 Coeff-Com: -0.175D+00 0.116D+01
 Coeff-En:   0.000D+00 0.000D+00 0.000D+00 0.000D+00 0.000D+00 0.000D+00
 Coeff-En:   0.000D+00 0.000D+00 0.000D+00 0.000D+00 0.000D+00 0.000D+00
 Coeff-En:   0.000D+00 0.100D+01
 Coeff:     -0.149D-01 0.175D-01 0.335D-02 0.301D-01-0.369D+00 0.340D+00
 Coeff:      0.351D+00-0.342D+00-0.343D+00 0.353D+00 0.150D+00-0.165D+00
 Coeff:     -0.174D+00 0.116D+01
 Gap=     0.232 Goal=   None    Shift=    0.000
 Gap=     0.631 Goal=   None    Shift=    0.000
 RMSDP=1.53D-04 MaxDP=3.71D-03 DE=-2.62D-03 OVMax= 5.49D-03

 Cycle  15  Pass 1  IDiag  1:
 E= -1299.45078847396     Delta-E=       -0.000061881064 Rises=F Damp=F
 DIIS: error= 1.26D-04 at cycle  15 NSaved=  15.
 NSaved=15 IEnMin=15 EnMin= -1299.45078847396     IErMin=15 ErrMin= 1.26D-04
 ErrMax= 1.26D-04  0.00D+00 EMaxC= 1.00D-01 BMatC= 4.31D-06 BMatP= 9.37D-05
 IDIUse=3 WtCom= 9.99D-01 WtEn= 1.26D-03
 Coeff-Com: -0.219D-02 0.202D-02-0.715D-03 0.113D-01 0.550D-01-0.854D-01
 Coeff-Com: -0.738D-01 0.105D+00 0.115D+00-0.125D+00-0.498D-01 0.529D-01
 Coeff-Com: -0.755D-01-0.539D-01 0.113D+01
 Coeff-En:   0.000D+00 0.000D+00 0.000D+00 0.000D+00 0.000D+00 0.000D+00
 Coeff-En:   0.000D+00 0.000D+00 0.000D+00 0.000D+00 0.000D+00 0.000D+00
 Coeff-En:   0.000D+00 0.000D+00 0.100D+01
 Coeff:     -0.219D-02 0.201D-02-0.714D-03 0.113D-01 0.549D-01-0.853D-01
 Coeff:     -0.737D-01 0.105D+00 0.115D+00-0.125D+00-0.497D-01 0.529D-01
 Coeff:     -0.754D-01-0.538D-01 0.113D+01
 Gap=     0.232 Goal=   None    Shift=    0.000
 Gap=     0.632 Goal=   None    Shift=    0.000
 RMSDP=4.20D-05 MaxDP=1.50D-03 DE=-6.19D-05 OVMax= 1.72D-03

 Cycle  16  Pass 1  IDiag  1:
 E= -1299.45079250347     Delta-E=       -0.000004029505 Rises=F Damp=F
 DIIS: error= 1.35D-04 at cycle  16 NSaved=  16.
 NSaved=16 IEnMin=16 EnMin= -1299.45079250347     IErMin=15 ErrMin= 1.26D-04
 ErrMax= 1.35D-04  0.00D+00 EMaxC= 1.00D-01 BMatC= 1.60D-06 BMatP= 4.31D-06
 IDIUse=3 WtCom= 9.99D-01 WtEn= 1.26D-03
 Coeff-Com: -0.467D-03 0.606D-03 0.162D-03-0.375D-02-0.256D-01 0.281D-01
 Coeff-Com:  0.283D-01-0.286D-01-0.374D-01 0.410D-01 0.186D-01-0.275D-01
 Coeff-Com:  0.122D-01-0.305D-01-0.356D+00 0.138D+01
 Coeff-En:   0.000D+00 0.000D+00 0.000D+00 0.000D+00 0.000D+00 0.000D+00
 Coeff-En:   0.000D+00 0.000D+00 0.000D+00 0.000D+00 0.000D+00 0.000D+00
 Coeff-En:   0.000D+00 0.000D+00 0.000D+00 0.100D+01
 Coeff:     -0.467D-03 0.606D-03 0.162D-03-0.375D-02-0.255D-01 0.280D-01
 Coeff:      0.282D-01-0.285D-01-0.373D-01 0.409D-01 0.186D-01-0.275D-01
 Coeff:      0.122D-01-0.304D-01-0.355D+00 0.138D+01
 Gap=     0.233 Goal=   None    Shift=    0.000
 Gap=     0.632 Goal=   None    Shift=    0.000
 RMSDP=3.70D-05 MaxDP=1.23D-03 DE=-4.03D-06 OVMax= 1.84D-03

 Cycle  17  Pass 1  IDiag  1:
 E= -1299.45079190166     Delta-E=        0.000000601812 Rises=F Damp=F
 DIIS: error= 1.02D-04 at cycle  17 NSaved=  17.
 NSaved=17 IEnMin=16 EnMin= -1299.45079250347     IErMin=17 ErrMin= 1.02D-04
 ErrMax= 1.02D-04  0.00D+00 EMaxC= 1.00D-01 BMatC= 1.03D-06 BMatP= 1.60D-06
 IDIUse=3 WtCom= 9.99D-01 WtEn= 1.02D-03
 Rare condition: small coef for last iteration:  0.000D+00
 Coeff-Com: -0.465D-04 0.643D-04 0.102D-03 0.768D-04-0.134D-02 0.416D-02
 Coeff-Com: -0.908D-03-0.110D-01 0.313D-02 0.205D-01-0.693D-02-0.170D-01
 Coeff-Com:  0.360D-01-0.456D-03-0.626D-01 0.122D-01 0.102D+01
 Coeff-En:   0.000D+00 0.000D+00 0.000D+00 0.000D+00 0.000D+00 0.000D+00
 Coeff-En:   0.000D+00 0.000D+00 0.000D+00 0.000D+00 0.000D+00 0.000D+00
 Coeff-En:   0.000D+00 0.000D+00 0.000D+00 0.000D+00 0.100D+01
 Coeff:     -0.465D-04 0.643D-04 0.102D-03 0.768D-04-0.134D-02 0.416D-02
 Coeff:     -0.908D-03-0.110D-01 0.313D-02 0.205D-01-0.693D-02-0.170D-01
 Coeff:      0.360D-01-0.456D-03-0.626D-01 0.122D-01 0.102D+01
 Gap=     0.232 Goal=   None    Shift=    0.000
 Gap=     0.632 Goal=   None    Shift=    0.000
 RMSDP=2.73D-05 MaxDP=6.54D-04 DE= 6.02D-07 OVMax= 1.08D-03

 Cycle  18  Pass 1  IDiag  1:
 E= -1299.45079317071     Delta-E=       -0.000001269053 Rises=F Damp=F
 DIIS: error= 1.30D-05 at cycle  18 NSaved=  18.
 NSaved=18 IEnMin=18 EnMin= -1299.45079317071     IErMin=18 ErrMin= 1.30D-05
 ErrMax= 1.30D-05  0.00D+00 EMaxC= 1.00D-01 BMatC= 3.16D-08 BMatP= 1.03D-06
 IDIUse=1 WtCom= 1.00D+00 WtEn= 0.00D+00
 Coeff-Com: -0.452D-05 0.689D-05-0.248D-04 0.966D-04 0.594D-03-0.129D-02
 Coeff-Com:  0.157D-03 0.930D-03-0.142D-02-0.637D-04 0.176D-02-0.866D-03
 Coeff-Com: -0.399D-02-0.251D-03 0.278D-01-0.798D-01-0.138D+00 0.119D+01
 Coeff:     -0.452D-05 0.689D-05-0.248D-04 0.966D-04 0.594D-03-0.129D-02
 Coeff:      0.157D-03 0.930D-03-0.142D-02-0.637D-04 0.176D-02-0.866D-03
 Coeff:     -0.399D-02-0.251D-03 0.278D-01-0.798D-01-0.138D+00 0.119D+01
 Gap=     0.233 Goal=   None    Shift=    0.000
 Gap=     0.632 Goal=   None    Shift=    0.000
 RMSDP=3.54D-06 MaxDP=1.15D-04 DE=-1.27D-06 OVMax= 1.55D-04

 Cycle  19  Pass 1  IDiag  1:
 E= -1299.45079317745     Delta-E=       -0.000000006740 Rises=F Damp=F
 DIIS: error= 7.94D-06 at cycle  19 NSaved=  19.
 NSaved=19 IEnMin=19 EnMin= -1299.45079317745     IErMin=19 ErrMin= 7.94D-06
 ErrMax= 7.94D-06  0.00D+00 EMaxC= 1.00D-01 BMatC= 1.11D-08 BMatP= 3.16D-08
 IDIUse=1 WtCom= 1.00D+00 WtEn= 0.00D+00
 Coeff-Com: -0.441D-05-0.226D-05 0.494D-05 0.134D-03 0.362D-03-0.660D-03
 Coeff-Com: -0.609D-03 0.722D-03 0.116D-02-0.969D-03-0.109D-02 0.609D-03
 Coeff-Com:  0.422D-02-0.771D-02-0.673D-03 0.225D-01-0.899D-02-0.481D+00
 Coeff-Com:  0.147D+01
 Coeff:     -0.441D-05-0.226D-05 0.494D-05 0.134D-03 0.362D-03-0.660D-03
 Coeff:     -0.609D-03 0.722D-03 0.116D-02-0.969D-03-0.109D-02 0.609D-03
 Coeff:      0.422D-02-0.771D-02-0.673D-03 0.225D-01-0.899D-02-0.481D+00
 Coeff:      0.147D+01
 Gap=     0.232 Goal=   None    Shift=    0.000
 Gap=     0.632 Goal=   None    Shift=    0.000
 RMSDP=1.99D-06 MaxDP=3.92D-05 DE=-6.74D-09 OVMax= 6.70D-05

 Cycle  20  Pass 1  IDiag  1:
 E= -1299.45079318380     Delta-E=       -0.000000006353 Rises=F Damp=F
 DIIS: error= 8.51D-07 at cycle  20 NSaved=  20.
 NSaved=20 IEnMin=20 EnMin= -1299.45079318380     IErMin=20 ErrMin= 8.51D-07
 ErrMax= 8.51D-07  0.00D+00 EMaxC= 1.00D-01 BMatC= 7.69D-11 BMatP= 1.11D-08
 IDIUse=1 WtCom= 1.00D+00 WtEn= 0.00D+00
 Coeff-Com: -0.351D-05 0.485D-05 0.393D-05-0.228D-04-0.821D-04 0.158D-03
 Coeff-Com: -0.229D-04-0.119D-03 0.129D-03 0.136D-03-0.614D-04-0.136D-03
 Coeff-Com: -0.610D-03 0.207D-02 0.650D-03-0.534D-02 0.235D-01 0.836D-02
 Coeff-Com: -0.344D+00 0.132D+01
 Coeff:     -0.351D-05 0.485D-05 0.393D-05-0.228D-04-0.821D-04 0.158D-03
 Coeff:     -0.229D-04-0.119D-03 0.129D-03 0.136D-03-0.614D-04-0.136D-03
 Coeff:     -0.610D-03 0.207D-02 0.650D-03-0.534D-02 0.235D-01 0.836D-02
 Coeff:     -0.344D+00 0.132D+01
 Gap=     0.232 Goal=   None    Shift=    0.000
 Gap=     0.632 Goal=   None    Shift=    0.000
 RMSDP=1.35D-07 MaxDP=4.44D-06 DE=-6.35D-09 OVMax= 5.99D-06

 Cycle  21  Pass 1  IDiag  1:
 E= -1299.45079318385     Delta-E=       -0.000000000045 Rises=F Damp=F
 DIIS: error= 4.54D-07 at cycle  21 NSaved=  20.
 NSaved=20 IEnMin=20 EnMin= -1299.45079318385     IErMin=20 ErrMin= 4.54D-07
 ErrMax= 4.54D-07  0.00D+00 EMaxC= 1.00D-01 BMatC= 3.17D-11 BMatP= 7.69D-11
 IDIUse=1 WtCom= 1.00D+00 WtEn= 0.00D+00
 Coeff-Com: -0.715D-06-0.364D-06 0.154D-04 0.233D-04-0.476D-04-0.185D-04
 Coeff-Com:  0.155D-04 0.890D-05 0.133D-04 0.194D-04-0.105D-04-0.441D-04
 Coeff-Com: -0.291D-03-0.187D-03 0.122D-02-0.126D-01 0.679D-02 0.154D+00
 Coeff-Com: -0.806D+00 0.166D+01
 Coeff:     -0.715D-06-0.364D-06 0.154D-04 0.233D-04-0.476D-04-0.185D-04
 Coeff:      0.155D-04 0.890D-05 0.133D-04 0.194D-04-0.105D-04-0.441D-04
 Coeff:     -0.291D-03-0.187D-03 0.122D-02-0.126D-01 0.679D-02 0.154D+00
 Coeff:     -0.806D+00 0.166D+01
 Gap=     0.232 Goal=   None    Shift=    0.000
 Gap=     0.632 Goal=   None    Shift=    0.000
 RMSDP=8.87D-08 MaxDP=1.82D-06 DE=-4.46D-11 OVMax= 1.74D-06

 Cycle  22  Pass 1  IDiag  1:
 E= -1299.45079318385     Delta-E=       -0.000000000004 Rises=F Damp=F
 DIIS: error= 1.99D-07 at cycle  22 NSaved=  20.
 NSaved=20 IEnMin=20 EnMin= -1299.45079318385     IErMin=20 ErrMin= 1.99D-07
 ErrMax= 1.99D-07  0.00D+00 EMaxC= 1.00D-01 BMatC= 5.75D-12 BMatP= 3.17D-11
 IDIUse=1 WtCom= 1.00D+00 WtEn= 0.00D+00
 Coeff-Com:  0.336D-06 0.231D-05-0.218D-05 0.493D-05-0.667D-05-0.127D-04
 Coeff-Com:  0.224D-04 0.949D-05-0.395D-04-0.434D-05 0.225D-03-0.284D-03
 Coeff-Com:  0.104D-04-0.602D-04 0.439D-02-0.121D-01-0.731D-02 0.108D+00
 Coeff-Com: -0.498D+00 0.141D+01
 Coeff:      0.336D-06 0.231D-05-0.218D-05 0.493D-05-0.667D-05-0.127D-04
 Coeff:      0.224D-04 0.949D-05-0.395D-04-0.434D-05 0.225D-03-0.284D-03
 Coeff:      0.104D-04-0.602D-04 0.439D-02-0.121D-01-0.731D-02 0.108D+00
 Coeff:     -0.498D+00 0.141D+01
 Gap=     0.232 Goal=   None    Shift=    0.000
 Gap=     0.632 Goal=   None    Shift=    0.000
 RMSDP=3.70D-08 MaxDP=7.77D-07 DE=-3.64D-12 OVMax= 1.18D-06

 Cycle  23  Pass 1  IDiag  1:
 E= -1299.45079318385     Delta-E=       -0.000000000002 Rises=F Damp=F
 DIIS: error= 6.17D-08 at cycle  23 NSaved=  20.
 NSaved=20 IEnMin=20 EnMin= -1299.45079318385     IErMin=20 ErrMin= 6.17D-08
 ErrMax= 6.17D-08  0.00D+00 EMaxC= 1.00D-01 BMatC= 3.25D-13 BMatP= 5.75D-12
 IDIUse=1 WtCom= 1.00D+00 WtEn= 0.00D+00
 Coeff-Com:  0.269D-06 0.104D-05-0.965D-06-0.654D-06-0.405D-06-0.993D-06
 Coeff-Com:  0.316D-05 0.396D-05-0.441D-05-0.420D-04 0.877D-04 0.162D-04
 Coeff-Com: -0.184D-03-0.182D-03 0.210D-02 0.303D-02-0.164D-01 0.920D-01
 Coeff-Com: -0.470D+00 0.139D+01
 Coeff:      0.269D-06 0.104D-05-0.965D-06-0.654D-06-0.405D-06-0.993D-06
 Coeff:      0.316D-05 0.396D-05-0.441D-05-0.420D-04 0.877D-04 0.162D-04
 Coeff:     -0.184D-03-0.182D-03 0.210D-02 0.303D-02-0.164D-01 0.920D-01
 Coeff:     -0.470D+00 0.139D+01
 Gap=     0.232 Goal=   None    Shift=    0.000
 Gap=     0.632 Goal=   None    Shift=    0.000
 RMSDP=1.58D-08 MaxDP=3.53D-07 DE=-1.59D-12 OVMax= 5.50D-07

 Cycle  24  Pass 1  IDiag  1:
 E= -1299.45079318385     Delta-E=       -0.000000000002 Rises=F Damp=F
 DIIS: error= 9.62D-09 at cycle  24 NSaved=  20.
 NSaved=20 IEnMin=20 EnMin= -1299.45079318385     IErMin=20 ErrMin= 9.62D-09
 ErrMax= 9.62D-09  0.00D+00 EMaxC= 1.00D-01 BMatC= 1.16D-14 BMatP= 3.25D-13
 IDIUse=1 WtCom= 1.00D+00 WtEn= 0.00D+00
 Large coefficients: NSaved= 20 BigCof=    0.00 CofMax=   10.00 Det=-9.65D-16
 Inversion failed.  Reducing to 19 matrices.
 Large coefficients: NSaved= 19 BigCof=    0.00 CofMax=   10.00 Det=-9.66D-16
 Inversion failed.  Reducing to 18 matrices.
 Large coefficients: NSaved= 18 BigCof=    0.00 CofMax=   10.00 Det=-9.80D-16
 Inversion failed.  Reducing to 17 matrices.
 Large coefficients: NSaved= 17 BigCof=    0.00 CofMax=   10.00 Det=-1.10D-15
 Inversion failed.  Reducing to 16 matrices.
 Large coefficients: NSaved= 16 BigCof=    0.00 CofMax=   10.00 Det=-1.13D-15
 Inversion failed.  Reducing to 15 matrices.
 Coeff-Com: -0.138D-06-0.184D-06 0.492D-06 0.518D-05-0.130D-04-0.564D-05
 Coeff-Com:  0.144D-04 0.301D-04-0.345D-04-0.102D-02 0.556D-03-0.272D-02
 Coeff-Com:  0.479D-01-0.265D+00 0.122D+01
 Coeff:     -0.138D-06-0.184D-06 0.492D-06 0.518D-05-0.130D-04-0.564D-05
 Coeff:      0.144D-04 0.301D-04-0.345D-04-0.102D-02 0.556D-03-0.272D-02
 Coeff:      0.479D-01-0.265D+00 0.122D+01
 Gap=     0.232 Goal=   None    Shift=    0.000
 DSYEVD-2 returned Info=         143 IAlg= 4 N=    71 NDim=    71 NE2=      380258 trying  DSYEV.
 Gap=     0.632 Goal=   None    Shift=    0.000
 RMSDP=1.04D-09 MaxDP=2.05D-08 DE=-2.27D-12 OVMax= 2.45D-08

 SCF Done:  E(UHF) =  -1299.45079318     A.U. after   24 cycles
            NFock= 24  Conv=0.10D-08     -V/T= 2.0001
 <Sx>= 0.0000 <Sy>= 0.0000 <Sz>= 1.5000 <S**2>= 6.1718 S= 2.0341
 <L.S>= 0.000000000000E+00
 KE= 1.299264443554D+03 PE=-3.337864518702D+03 EE= 6.149433176329D+02
 Annihilation of the first spin contaminant:
 S**2 before annihilation     6.1718,   after     7.7096
 Leave Link  502 at Tue Sep 22 13:39:34 2015, MaxMem=    33554432 cpu:               3.9 elap:               3.9
 (Enter /home/gauss/gdvi01p/gdv/l601.exe)
 Copying SCF densities to generalized density rwf, IOpCl= 1 IROHF=0.

 **********************************************************************

            Population analysis using the SCF density.

 **********************************************************************

 Alpha  occ. eigenvalues -- -240.60980 -29.25791 -24.96286 -24.96286 -24.95665
 Alpha  occ. eigenvalues --  -20.62622 -20.62621  -4.08178  -2.78712  -2.78712
 Alpha  occ. eigenvalues --   -2.78496  -1.16925  -1.14115  -0.70409  -0.70409
 Alpha  occ. eigenvalues --   -0.70039  -0.68501  -0.68501  -0.51773  -0.50317
 Alpha  occ. eigenvalues --   -0.26855  -0.26855
 Alpha virt. eigenvalues --   -0.03606  -0.03606   0.02016   0.09147   0.09147
 Alpha virt. eigenvalues --    0.11000   0.18904   0.20707   0.20707   0.22170
 Alpha virt. eigenvalues --    0.22170   0.35160   0.35160   0.36831   0.39709
 Alpha virt. eigenvalues --    0.74396   0.74396   0.82697   0.88445   1.31257
 Alpha virt. eigenvalues --    1.31257   1.31662   1.32276   1.32276   1.33488
 Alpha virt. eigenvalues --    1.33488   1.36631   1.49560   1.49560   1.72250
 Alpha virt. eigenvalues --    2.07103   2.30575   2.52003   2.52003   2.64709
 Alpha virt. eigenvalues --    2.66093   2.66093   2.67728   2.67728   2.98787
 Alpha virt. eigenvalues --    2.98787   3.00574   3.00574   3.09071   3.09071
 Alpha virt. eigenvalues --    3.30646   3.30646   3.67616   4.01922
  Beta  occ. eigenvalues -- -240.60469 -29.12692 -24.83398 -24.82977 -24.82977
  Beta  occ. eigenvalues --  -20.69217 -20.69217  -3.68809  -2.32145  -2.30810
  Beta  occ. eigenvalues --   -2.30810  -1.40057  -1.38729  -0.66269  -0.66269
  Beta  occ. eigenvalues --   -0.65768  -0.65768  -0.64967  -0.60950
  Beta virt. eigenvalues --    0.02240   0.06891   0.06891   0.11130   0.15713
  Beta virt. eigenvalues --    0.17272   0.17272   0.23043   0.23043   0.24513
  Beta virt. eigenvalues --    0.24513   0.35266   0.35266   0.35873   0.35873
  Beta virt. eigenvalues --    0.38306   0.39244   0.39727   0.81977   0.81977
  Beta virt. eigenvalues --    0.90957   0.93714   1.18520   1.18520   1.27092
  Beta virt. eigenvalues --    1.32931   1.34427   1.34427   1.54063   1.54063
  Beta virt. eigenvalues --    1.56315   1.56315   1.83828   2.01763   2.28158
  Beta virt. eigenvalues --    2.58172   2.58172   2.70977   2.75920   2.75920
  Beta virt. eigenvalues --    2.81813   2.81813   2.92441   2.92441   2.97536
  Beta virt. eigenvalues --    2.97536   3.00282   3.00282   3.36745   3.36745
  Beta virt. eigenvalues --    3.64976   4.09993
          Condensed to atoms (all electrons):
               1          2          3
     1  Mn  23.821130   0.302956   0.302956
     2  O    0.302956   7.984033  -0.000510
     3  O    0.302956  -0.000510   7.984033
          Atomic-Atomic Spin Densities.
               1          2          3
     1  Mn   5.616204   0.158018   0.158018
     2  O    0.158018  -1.624254   0.000116
     3  O    0.158018   0.000116  -1.624254
 Mulliken charges and spin densities:
               1          2
     1  Mn   0.572958   5.932240
     2  O   -0.286479  -1.466120
     3  O   -0.286479  -1.466120
 Sum of Mulliken charges =   0.00000   3.00000
 Mulliken charges and spin densities with hydrogens summed into heavy atoms:
               1          2
     1  Mn   0.572958   5.932240
     2  O   -0.286479  -1.466120
     3  O   -0.286479  -1.466120
 Electronic spatial extent (au):  <R**2>=            259.8779
 Charge=              0.0000 electrons
 Dipole moment (field-independent basis, Debye):
    X=              0.0000    Y=              0.0000    Z=              0.0000  Tot=              0.0000
 Quadrupole moment (field-independent basis, Debye-Ang):
   XX=            -26.3434   YY=            -26.3434   ZZ=            -36.5209
   XY=              0.0000   XZ=              0.0000   YZ=              0.0000
 Traceless Quadrupole moment (field-independent basis, Debye-Ang):
   XX=              3.3925   YY=              3.3925   ZZ=             -6.7850
   XY=              0.0000   XZ=              0.0000   YZ=              0.0000
 Octapole moment (field-independent basis, Debye-Ang**2):
  XXX=              0.0000  YYY=              0.0000  ZZZ=              0.0000  XYY=              0.0000
  XXY=              0.0000  XXZ=              0.0000  XZZ=              0.0000  YZZ=              0.0000
  YYZ=              0.0000  XYZ=              0.0000
 Hexadecapole moment (field-independent basis, Debye-Ang**3):
 XXXX=            -43.4953 YYYY=            -43.4953 ZZZZ=           -303.7000 XXXY=              0.0000
 XXXZ=              0.0000 YYYX=              0.0000 YYYZ=              0.0000 ZZZX=              0.0000
 ZZZY=              0.0000 XXYY=            -14.4984 XXZZ=            -49.4396 YYZZ=            -49.4396
 XXYZ=              0.0000 YYXZ=              0.0000 ZZXY=              0.0000
 N-N= 1.242059643306D+02 E-N=-3.337864519834D+03  KE= 1.299264443554D+03
                          Isotropic Fermi Contact Couplings
        Atom                 a.u.       MegaHertz       Gauss      10(-4) cm-1
     1  Mn(55)             1.87809     691.98184     246.91633     230.82030
     2  O(17)             -0.44804      90.53401      32.30479      30.19889
     3  O(17)             -0.44804      90.53401      32.30479      30.19889
 --------------------------------------------------------
       Center         ----  Spin Dipole Couplings  ----
                      3XX-RR        3YY-RR        3ZZ-RR
 --------------------------------------------------------
     1   Atom        0.416451      0.416451     -0.832902
     2   Atom       -1.294030     -1.294030      2.588060
     3   Atom       -1.294030     -1.294030      2.588060
 --------------------------------------------------------
                        XY            XZ            YZ
 --------------------------------------------------------
     1   Atom        0.000000      0.000000      0.000000
     2   Atom        0.000000      0.000000      0.000000
     3   Atom        0.000000      0.000000      0.000000
 --------------------------------------------------------


 ---------------------------------------------------------------------------------
              Anisotropic Spin Dipole Couplings in Principal Axis System
 ---------------------------------------------------------------------------------

       Atom             a.u.   MegaHertz   Gauss  10(-4) cm-1        Axes

              Baa    -0.8329  -109.894   -39.213   -36.657  0.0000  0.0000  1.0000
     1 Mn(55) Bbb     0.4165    54.947    19.607    18.328 -0.3626  0.9319  0.0000
              Bcc     0.4165    54.947    19.607    18.328  0.9319  0.3626  0.0000
 
              Baa    -1.2940    93.635    33.411    31.233  1.0000  0.0088  0.0000
     2 O(17)  Bbb    -1.2940    93.635    33.411    31.233 -0.0088  1.0000  0.0000
              Bcc     2.5881  -187.270   -66.823   -62.467  0.0000  0.0000  1.0000
 
              Baa    -1.2940    93.635    33.411    31.233 -0.0088  1.0000  0.0000
     3 O(17)  Bbb    -1.2940    93.635    33.411    31.233  1.0000  0.0088  0.0000
              Bcc     2.5881  -187.270   -66.823   -62.467  0.0000  0.0000  1.0000
 

 ---------------------------------------------------------------------------------

 No NMR shielding tensors so no spin-rotation constants.
 Leave Link  601 at Tue Sep 22 13:39:34 2015, MaxMem=    33554432 cpu:               0.3 elap:               0.3
 (Enter /home/gauss/gdvi01p/gdv/l9999.exe)
 Unable to Open any file for archive entry.
 1\1\GINC-MEDUSA\SP\UHF\CC-pVDZ\Mn1O2(4)\DBWY\22-Sep-2015\0\\#p uhf/cc-
 pVDZ nosymm\\MnO2 cc-pVDZ\\0,4\Mn,0,0.,0.,0.\O,0,0.,0.,1.840528\O,0,0.
 ,0.,-1.840528\\Version=ES64L-GDVRevI.01+\HF=-1299.4507932\S2=6.17179\S
 2-1=0.\S2A=7.709619\RMSD=1.038e-09\Dipole=0.,0.,0.\Quadrupole=2.522236
 1,2.5222361,-5.0444721,0.,0.,0.\PG=D*H [O(Mn1),C*(O1.O1)]\\@
 The archive entry for this job was punched.


 A COMPLEXITY IS MERELY A DISARRANGEMENT OF SIMPLICITIES.

                                    -- G. O. ABELL IN "EXPLORATION OF THE UNIVERSE"
 Job cpu time:       0 days  0 hours  0 minutes  5.3 seconds.
 Elapsed time:       0 days  0 hours  0 minutes  5.1 seconds.
 File lengths (MBytes):  RWF=      9 Int=      0 D2E=      0 Chk=      1 Scr=      1
 Normal termination of Gaussian DV at Tue Sep 22 13:39:34 2015.
