 Entering Gaussian System, Link 0=gdv
 Input=MnO2_cc-pVDZ_TD.com
 Output=MnO2_cc-pVDZ_TD.log
 Initial command:
 /home/gauss/gdvi03p/gdv/l1.exe "/home/GauScr/Gau-22509.inp" -scrdir="/home/GauScr/"
 Entering Link 1 = /home/gauss/gdvi03p/gdv/l1.exe PID=     22510.
  
 Copyright (c) 1988,1990,1992,1993,1995,1998,2003,2009,2015,
            Gaussian, Inc.  All Rights Reserved.
  
 This is the private, development version of
 the Gaussian(R) DV system of programs. It is based on
 the Gaussian(R) 09 system (copyright 2009, Gaussian, Inc.),
 the Gaussian(R) 03 system (copyright 2003, Gaussian, Inc.),
 the Gaussian(R) 98 system (copyright 1998, Gaussian, Inc.),
 the Gaussian(R) 94 system (copyright 1995, Gaussian, Inc.),
 the Gaussian 92(TM) system (copyright 1992, Gaussian, Inc.),
 the Gaussian 90(TM) system (copyright 1990, Gaussian, Inc.),
 the Gaussian 88(TM) system (copyright 1988, Gaussian, Inc.),
 the Gaussian 86(TM) system (copyright 1986, Carnegie Mellon
 University), and the Gaussian 82(TM) system (copyright 1983,
 Carnegie Mellon University). Gaussian is a federally registered
 trademark of Gaussian, Inc.
  
 This software contains proprietary and confidential information,
 including trade secrets, belonging to Gaussian, Inc.
  
 This software is provided under written license and may be
 used, copied, transmitted, or stored only in accord with that
 written license.
  
 The following legend is applicable only to US Government
 contracts under FAR:
  
                    RESTRICTED RIGHTS LEGEND
  
 Use, reproduction and disclosure by the US Government is
 subject to restrictions as set forth in subparagraphs (a)
 and (c) of the Commercial Computer Software - Restricted
 Rights clause in FAR 52.227-19.
  
 Gaussian, Inc.
 340 Quinnipiac St., Bldg. 40, Wallingford CT 06492
  
  
 ---------------------------------------------------------------
 Warning -- This program may not be used in any manner that
 competes with the business of Gaussian, Inc. or will provide
 assistance to any competitor of Gaussian, Inc.  The licensee
 of this program is prohibited from giving any competitor of
 Gaussian, Inc. access to this program.  By using this program,
 the user acknowledges that Gaussian, Inc. is engaged in the
 business of creating and licensing software in the field of
 computational chemistry and represents and warrants to the
 licensee that it is not a competitor of Gaussian, Inc. and that
 it will not use this program in any manner prohibited above.
 ---------------------------------------------------------------
  

 Cite this work as:
 Gaussian Development Version, Revision I.03+,
 M. J. Frisch, G. W. Trucks, H. B. Schlegel, G. E. Scuseria, 
 M. A. Robb, J. R. Cheeseman, G. Scalmani, V. Barone, B. Mennucci, 
 G. A. Petersson, H. Nakatsuji, M. Caricato, X. Li, H. P. Hratchian, 
 J. Bloino, B. G. Janesko, A. F. Izmaylov, A. Marenich, F. Lipparini, 
 G. Zheng, J. L. Sonnenberg, W. Liang, M. Hada, M. Ehara, K. Toyota, 
 R. Fukuda, J. Hasegawa, M. Ishida, T. Nakajima, Y. Honda, O. Kitao, 
 H. Nakai, T. Vreven, K. Throssell, J. A. Montgomery, Jr., 
 J. E. Peralta, F. Ogliaro, M. Bearpark, J. J. Heyd, E. Brothers, 
 K. N. Kudin, V. N. Staroverov, T. Keith, R. Kobayashi, J. Normand, 
 K. Raghavachari, A. Rendell, J. C. Burant, S. S. Iyengar, J. Tomasi, 
 M. Cossi, N. Rega, J. M. Millam, M. Klene, J. E. Knox, J. B. Cross, 
 V. Bakken, C. Adamo, J. Jaramillo, R. Gomperts, R. E. Stratmann, 
 O. Yazyev, A. J. Austin, R. Cammi, C. Pomelli, J. W. Ochterski, 
 R. L. Martin, K. Morokuma, V. G. Zakrzewski, G. A. Voth, 
 P. Salvador, J. J. Dannenberg, S. Dapprich, P. V. Parandekar, 
 N. J. Mayhall, A. D. Daniels, O. Farkas, J. B. Foresman, 
 J. V. Ortiz, J. Cioslowski, and D. J. Fox, 
 Gaussian, Inc., Wallingford CT, 2014.
 
 *******************************************
 Gaussian DV:  ES64L-GDVRevI.03+  2-May-2015
                 28-Oct-2015 
 *******************************************
 -----------------------------------------
 #p uhf/cc-pVDZ nosymm td(full,nstates=12)
 -----------------------------------------
 1/38=1,172=1/1;
 2/12=2,15=1,17=6,18=5,40=1/2;
 3/5=16,11=2,25=1,30=1,116=2/1,2,3,8;
 4//1;
 5/5=2,38=5/2;
 8/6=1,10=90,108=12/1,4;
 9/41=12,42=3,70=2/14;
 6/7=2,8=2,9=2,10=2/1;
 99/5=1,9=1/99;
 Leave Link    1 at Wed Oct 28 10:11:23 2015, MaxMem=           0 cpu:               0.0 elap:               0.0
 (Enter /home/gauss/gdvi03p/gdv/l101.exe)
 ------------
 MnO2 cc-pVDZ
 ------------
 Symbolic Z-matrix:
 Charge =  0 Multiplicity = 4
 Mn                    0.        0.        0. 
 O                     0.        0.        1.84053 
 O                     0.        0.       -1.84053 
 
 ITRead=  0  0  0
 MicOpt= -1 -1 -1
 NAtoms=      3 NQM=        3 NQMF=       0 NMMI=      0 NMMIF=      0
                NMic=       0 NMicF=      0.
                    Isotopes and Nuclear Properties:
 (Nuclear quadrupole moments (NQMom) in fm**2, nuclear magnetic moments (NMagM)
  in nuclear magnetons)

  Atom         1           2           3
 IAtWgt=          55          16          16
 AtmWgt=  54.9380463  15.9949146  15.9949146
 NucSpn=           5           0           0
 AtZEff=   0.0000000   0.0000000   0.0000000
 NQMom=   33.0000000   0.0000000   0.0000000
 NMagM=    3.4532000   0.0000000   0.0000000
 AtZNuc=  25.0000000   8.0000000   8.0000000
 Leave Link  101 at Wed Oct 28 10:11:24 2015, MaxMem=    33554432 cpu:               0.1 elap:               0.1
 (Enter /home/gauss/gdvi03p/gdv/l202.exe)
                          Input orientation:                          
 ---------------------------------------------------------------------
 Center     Atomic      Atomic             Coordinates (Angstroms)
 Number     Number       Type             X           Y           Z
 ---------------------------------------------------------------------
      1         25           0        0.000000    0.000000    0.000000
      2          8           0        0.000000    0.000000    1.840528
      3          8           0        0.000000    0.000000   -1.840528
 ---------------------------------------------------------------------
                    Distance matrix (angstroms):
                    1          2          3
     1  Mn   0.000000
     2  O    1.840528   0.000000
     3  O    1.840528   3.681056   0.000000
 Symmetry turned off by external request.
 Stoichiometry    MnO2(4)
 Framework group  D*H[O(Mn),C*(O.O)]
 Deg. of freedom     1
 Full point group                 D*H     NOp   8
 Rotational constants (GHZ):      0.0000000      4.6635906      4.6635906
 Leave Link  202 at Wed Oct 28 10:11:24 2015, MaxMem=    33554432 cpu:               0.0 elap:               0.0
 (Enter /home/gauss/gdvi03p/gdv/l301.exe)
 Standard basis: CC-pVDZ (5D, 7F)
 Ernie: Thresh=  0.10000D-02 Tol=  0.10000D-05 Strict=F.
 Ernie:  69 primitive shells out of 229 were deleted.
    71 basis functions,   354 primitive gaussians,    79 cartesian basis functions
    22 alpha electrons       19 beta electrons
       nuclear repulsion energy       124.2059643306 Hartrees.
 IExCor=    0 DFT=F Ex=HF Corr=None ExCW=0 ScaHFX=  1.000000
 ScaDFX=  1.000000  1.000000  1.000000  1.000000 ScalE2=  1.000000  1.000000
 IRadAn=      0 IRanWt=     -1 IRanGd=            0 ICorTp=0 IEmpDi=  4
 NAtoms=    3 NActive=    3 NUniq=    3 SFac= 1.00D+00 NAtFMM=   60 NAOKFM=F Big=F
 Integral buffers will be    131072 words long.
 Raffenetti 2 integral format.
 Two-electron integral symmetry is turned off.
 Leave Link  301 at Wed Oct 28 10:11:24 2015, MaxMem=    33554432 cpu:               0.1 elap:               0.1
 (Enter /home/gauss/gdvi03p/gdv/l302.exe)
 NPDir=0 NMtPBC=     1 NCelOv=     1 NCel=       1 NClECP=     1 NCelD=      1
         NCelK=      1 NCelE2=     1 NClLst=     1 CellRange=     0.0.
 One-electron integrals computed using PRISM.
 One-electron integral symmetry used in STVInt
 NBasis=    71 RedAO= T EigKep=  1.11D-02  NBF=    71
 NBsUse=    71 1.00D-06 EigRej= -1.00D+00 NBFU=    71
 Leave Link  302 at Wed Oct 28 10:11:24 2015, MaxMem=    33554432 cpu:               0.2 elap:               0.2
 (Enter /home/gauss/gdvi03p/gdv/l303.exe)
 DipDrv:  MaxL=1.
 Leave Link  303 at Wed Oct 28 10:11:24 2015, MaxMem=    33554432 cpu:               0.0 elap:               0.0
 (Enter /home/gauss/gdvi03p/gdv/l308.exe)
 Leave Link  308 at Wed Oct 28 10:11:24 2015, MaxMem=    33554432 cpu:               0.0 elap:               0.0
 (Enter /home/gauss/gdvi03p/gdv/l401.exe)
 ExpMin= 2.96D-02 ExpMax= 3.96D+06 ExpMxC= 4.50D+03 IAcc=3 IRadAn=         5 AccDes= 0.00D+00
 Harris functional with IExCor=  205 and IRadAn=       5 diagonalized for initial guess.
 HarFok:  IExCor=  205 AccDes= 0.00D+00 IRadAn=         5 IDoV= 1 UseB2=F ITyADJ=14
 ICtDFT=  3500011 ScaDFX=  1.000000  1.000000  1.000000  1.000000
 FoFCou: FMM=F IPFlag=           0 FMFlag=      100000 FMFlg1=           0
         NFxFlg=           0 DoJE=T BraDBF=F KetDBF=T FulRan=T
         wScrn=  0.000000 ICntrl=       500 IOpCl=  0 I1Cent=   200000004 NGrid=           0
         NMat0=    1 NMatS0=      1 NMatT0=    0 NMatD0=    1 NMtDS0=    0 NMtDT0=    0
 Symmetry not used in FoFCou.
 Harris En= -1298.92760200917    
 JPrj=0 DoOrth=F DoCkMO=F.
 Initial guess <Sx>= 0.0000 <Sy>= 0.0000 <Sz>= 1.5000 <S**2>= 3.7500 S= 1.5000
 Leave Link  401 at Wed Oct 28 10:11:25 2015, MaxMem=    33554432 cpu:               0.6 elap:               0.6
 (Enter /home/gauss/gdvi03p/gdv/l502.exe)
 Keep R1 and R2 ints in memory in canonical form, NReq=9673094.
 FoFCou: FMM=F IPFlag=           0 FMFlag=           0 FMFlg1=           0
         NFxFlg=           0 DoJE=F BraDBF=F KetDBF=F FulRan=T
         wScrn=  0.000000 ICntrl=       600 IOpCl=  0 I1Cent=           0 NGrid=           0
         NMat0=    1 NMatS0=   2556 NMatT0=    0 NMatD0=    1 NMtDS0=    0 NMtDT0=    0
 Symmetry not used in FoFCou.
 Two-electron integral symmetry not used.
 UHF open shell SCF:
 Using DIIS extrapolation, IDIIS=  1040.
 NGot=    33554432 LenX=    27005136 LenY=    26998454
 Requested convergence on RMS density matrix=1.00D-08 within 128 cycles.
 Requested convergence on MAX density matrix=1.00D-06.
 Requested convergence on             energy=1.00D-06.
 No special actions if energy rises.

 Cycle   1  Pass 1  IDiag  1:
 E= -1297.99925625709    
 DIIS: error= 1.76D-01 at cycle   1 NSaved=   1.
 NSaved= 1 IEnMin= 1 EnMin= -1297.99925625709     IErMin= 1 ErrMin= 1.76D-01
 ErrMax= 1.76D-01  0.00D+00 EMaxC= 1.00D-01 BMatC= 6.36D+00 BMatP= 6.36D+00
 IDIUse=3 WtCom= 0.00D+00 WtEn= 1.00D+00
 Coeff-Com:  0.100D+01
 Coeff-En:   0.100D+01
 Coeff:      0.100D+01
 Gap=     0.355 Goal=   None    Shift=    0.000
 Gap=    -0.499 Goal=   None    Shift=    0.000
 GapD=   -0.499 DampG=0.250 DampE=0.125 DampFc=0.1250 IDamp=-1.
 Damping current iteration by 1.25D-01
 RMSDP=4.16D-02 MaxDP=8.15D-01              OVMax= 1.00D+00

 Cycle   2  Pass 1  IDiag  1:
 E= -1298.35619357147     Delta-E=       -0.356937314375 Rises=F Damp=T
 DIIS: error= 8.38D-02 at cycle   2 NSaved=   2.
 NSaved= 2 IEnMin= 2 EnMin= -1298.35619357147     IErMin= 2 ErrMin= 8.38D-02
 ErrMax= 8.38D-02  0.00D+00 EMaxC= 1.00D-01 BMatC= 1.62D+00 BMatP= 6.36D+00
 IDIUse=3 WtCom= 1.62D-01 WtEn= 8.38D-01
 Coeff-Com: -0.862D+00 0.186D+01
 Coeff-En:   0.000D+00 0.100D+01
 Coeff:     -0.140D+00 0.114D+01
 Gap=     0.171 Goal=   None    Shift=    0.000
 Gap=    -0.074 Goal=   None    Shift=    0.000
 RMSDP=1.45D-02 MaxDP=2.62D-01 DE=-3.57D-01 OVMax= 1.00D+00

 Cycle   3  Pass 1  IDiag  1:
 E= -1298.39911696564     Delta-E=       -0.042923394170 Rises=F Damp=F
 DIIS: error= 1.77D-01 at cycle   3 NSaved=   3.
 NSaved= 3 IEnMin= 3 EnMin= -1298.39911696564     IErMin= 2 ErrMin= 8.38D-02
 ErrMax= 1.77D-01  0.00D+00 EMaxC= 1.00D-01 BMatC= 4.69D+00 BMatP= 1.62D+00
 IDIUse=2 WtCom= 0.00D+00 WtEn= 1.00D+00
 EnCoef did   100 forward-backward iterations
 Coeff-En:   0.420D+00 0.714D-02 0.573D+00
 Coeff:      0.420D+00 0.714D-02 0.573D+00
 Gap=     0.303 Goal=   None    Shift=    0.000
 Gap=     0.588 Goal=   None    Shift=    0.000
 RMSDP=9.26D-03 MaxDP=2.22D-01 DE=-4.29D-02 OVMax= 3.48D-01

 Cycle   4  Pass 1  IDiag  1:
 E= -1299.15788881890     Delta-E=       -0.758771853262 Rises=F Damp=F
 DIIS: error= 4.63D-02 at cycle   4 NSaved=   4.
 NSaved= 4 IEnMin= 4 EnMin= -1299.15788881890     IErMin= 4 ErrMin= 4.63D-02
 ErrMax= 4.63D-02  0.00D+00 EMaxC= 1.00D-01 BMatC= 2.39D-01 BMatP= 1.62D+00
 IDIUse=3 WtCom= 5.37D-01 WtEn= 4.63D-01
 Coeff-Com: -0.425D+00 0.529D+00-0.116D-01 0.908D+00
 Coeff-En:   0.000D+00 0.000D+00 0.286D-01 0.971D+00
 Coeff:     -0.228D+00 0.284D+00 0.704D-02 0.937D+00
 Gap=     0.281 Goal=   None    Shift=    0.000
 Gap=     0.391 Goal=   None    Shift=    0.000
 RMSDP=3.34D-03 MaxDP=8.27D-02 DE=-7.59D-01 OVMax= 1.40D-01

 Cycle   5  Pass 1  IDiag  1:
 E= -1299.22310937208     Delta-E=       -0.065220553185 Rises=F Damp=F
 DIIS: error= 2.87D-02 at cycle   5 NSaved=   5.
 NSaved= 5 IEnMin= 5 EnMin= -1299.22310937208     IErMin= 5 ErrMin= 2.87D-02
 ErrMax= 2.87D-02  0.00D+00 EMaxC= 1.00D-01 BMatC= 5.76D-02 BMatP= 2.39D-01
 IDIUse=3 WtCom= 7.13D-01 WtEn= 2.87D-01
 Coeff-Com: -0.311D+00 0.417D+00-0.578D-01 0.526D+00 0.425D+00
 Coeff-En:   0.000D+00 0.000D+00 0.000D+00 0.000D+00 0.100D+01
 Coeff:     -0.222D+00 0.297D+00-0.412D-01 0.375D+00 0.590D+00
 Gap=     0.308 Goal=   None    Shift=    0.000
 Gap=     0.443 Goal=   None    Shift=    0.000
 RMSDP=2.25D-03 MaxDP=4.40D-02 DE=-6.52D-02 OVMax= 1.03D-01

 Cycle   6  Pass 1  IDiag  1:
 E= -1299.23459412743     Delta-E=       -0.011484755348 Rises=F Damp=F
 DIIS: error= 4.24D-02 at cycle   6 NSaved=   6.
 NSaved= 6 IEnMin= 6 EnMin= -1299.23459412743     IErMin= 5 ErrMin= 2.87D-02
 ErrMax= 4.24D-02  0.00D+00 EMaxC= 1.00D-01 BMatC= 1.09D-01 BMatP= 5.76D-02
 IDIUse=2 WtCom= 0.00D+00 WtEn= 1.00D+00
 Coeff-En:   0.000D+00 0.000D+00 0.000D+00 0.000D+00 0.184D+00 0.816D+00
 Coeff:      0.000D+00 0.000D+00 0.000D+00 0.000D+00 0.184D+00 0.816D+00
 Gap=     0.232 Goal=   None    Shift=    0.000
 Gap=     0.427 Goal=   None    Shift=    0.000
 RMSDP=3.69D-03 MaxDP=1.39D-01 DE=-1.15D-02 OVMax= 2.03D-01

 Cycle   7  Pass 1  IDiag  1:
 E= -1299.26670280237     Delta-E=       -0.032108674936 Rises=F Damp=F
 DIIS: error= 5.16D-02 at cycle   7 NSaved=   7.
 NSaved= 7 IEnMin= 7 EnMin= -1299.26670280237     IErMin= 5 ErrMin= 2.87D-02
 ErrMax= 5.16D-02  0.00D+00 EMaxC= 1.00D-01 BMatC= 2.42D-01 BMatP= 5.76D-02
 IDIUse=2 WtCom= 0.00D+00 WtEn= 1.00D+00
 Coeff-En:   0.000D+00 0.000D+00 0.000D+00 0.000D+00 0.000D+00 0.103D+00
 Coeff-En:   0.897D+00
 Coeff:      0.000D+00 0.000D+00 0.000D+00 0.000D+00 0.000D+00 0.103D+00
 Coeff:      0.897D+00
 Gap=     0.281 Goal=   None    Shift=    0.000
 Gap=     0.578 Goal=   None    Shift=    0.000
 RMSDP=5.25D-03 MaxDP=1.06D-01 DE=-3.21D-02 OVMax= 1.67D-01

 Cycle   8  Pass 1  IDiag  1:
 E= -1299.29817263023     Delta-E=       -0.031469827861 Rises=F Damp=F
 DIIS: error= 5.57D-02 at cycle   8 NSaved=   8.
 NSaved= 8 IEnMin= 8 EnMin= -1299.29817263023     IErMin= 5 ErrMin= 2.87D-02
 ErrMax= 5.57D-02  0.00D+00 EMaxC= 1.00D-01 BMatC= 2.43D-01 BMatP= 5.76D-02
 IDIUse=2 WtCom= 0.00D+00 WtEn= 1.00D+00
 Coeff-En:   0.000D+00 0.000D+00 0.000D+00 0.000D+00 0.000D+00 0.000D+00
 Coeff-En:   0.275D+00 0.725D+00
 Coeff:      0.000D+00 0.000D+00 0.000D+00 0.000D+00 0.000D+00 0.000D+00
 Coeff:      0.275D+00 0.725D+00
 Gap=     0.216 Goal=   None    Shift=    0.000
 Gap=     0.493 Goal=   None    Shift=    0.000
 RMSDP=4.28D-03 MaxDP=1.40D-01 DE=-3.15D-02 OVMax= 1.94D-01

 Cycle   9  Pass 1  IDiag  1:
 E= -1299.36071267933     Delta-E=       -0.062540049105 Rises=F Damp=F
 DIIS: error= 3.63D-02 at cycle   9 NSaved=   9.
 NSaved= 9 IEnMin= 9 EnMin= -1299.36071267933     IErMin= 5 ErrMin= 2.87D-02
 ErrMax= 3.63D-02  0.00D+00 EMaxC= 1.00D-01 BMatC= 1.59D-01 BMatP= 5.76D-02
 IDIUse=2 WtCom= 0.00D+00 WtEn= 1.00D+00
 Coeff-En:   0.000D+00 0.000D+00 0.000D+00 0.000D+00 0.000D+00 0.000D+00
 Coeff-En:   0.000D+00 0.000D+00 0.100D+01
 Coeff:      0.000D+00 0.000D+00 0.000D+00 0.000D+00 0.000D+00 0.000D+00
 Coeff:      0.000D+00 0.000D+00 0.100D+01
 Gap=     0.246 Goal=   None    Shift=    0.000
 Gap=     0.627 Goal=   None    Shift=    0.000
 RMSDP=4.55D-03 MaxDP=9.64D-02 DE=-6.25D-02 OVMax= 1.11D-01

 Cycle  10  Pass 1  IDiag  1:
 E= -1299.39027876763     Delta-E=       -0.029566088297 Rises=F Damp=F
 DIIS: error= 3.42D-02 at cycle  10 NSaved=  10.
 NSaved=10 IEnMin=10 EnMin= -1299.39027876763     IErMin= 5 ErrMin= 2.87D-02
 ErrMax= 3.42D-02  0.00D+00 EMaxC= 1.00D-01 BMatC= 1.13D-01 BMatP= 5.76D-02
 IDIUse=2 WtCom= 0.00D+00 WtEn= 1.00D+00
 Coeff-En:   0.000D+00 0.000D+00 0.000D+00 0.000D+00 0.000D+00 0.000D+00
 Coeff-En:   0.000D+00 0.000D+00 0.000D+00 0.100D+01
 Coeff:      0.000D+00 0.000D+00 0.000D+00 0.000D+00 0.000D+00 0.000D+00
 Coeff:      0.000D+00 0.000D+00 0.000D+00 0.100D+01
 Gap=     0.217 Goal=   None    Shift=    0.000
 Gap=     0.523 Goal=   None    Shift=    0.000
 RMSDP=3.88D-03 MaxDP=1.04D-01 DE=-2.96D-02 OVMax= 1.40D-01

 Cycle  11  Pass 1  IDiag  1:
 E= -1299.41116363389     Delta-E=       -0.020884866263 Rises=F Damp=F
 DIIS: error= 2.29D-02 at cycle  11 NSaved=  11.
 NSaved=11 IEnMin=11 EnMin= -1299.41116363389     IErMin=11 ErrMin= 2.29D-02
 ErrMax= 2.29D-02  0.00D+00 EMaxC= 1.00D-01 BMatC= 1.34D-01 BMatP= 5.76D-02
 IDIUse=2 WtCom= 0.00D+00 WtEn= 1.00D+00
 Coeff-En:   0.000D+00 0.000D+00 0.000D+00 0.000D+00 0.000D+00 0.000D+00
 Coeff-En:   0.000D+00 0.000D+00 0.000D+00 0.181D+00 0.819D+00
 Coeff:      0.000D+00 0.000D+00 0.000D+00 0.000D+00 0.000D+00 0.000D+00
 Coeff:      0.000D+00 0.000D+00 0.000D+00 0.181D+00 0.819D+00
 Gap=     0.231 Goal=   None    Shift=    0.000
 Gap=     0.619 Goal=   None    Shift=    0.000
 RMSDP=3.38D-03 MaxDP=7.21D-02 DE=-2.09D-02 OVMax= 5.73D-02

 Cycle  12  Pass 1  IDiag  1:
 E= -1299.43346900630     Delta-E=       -0.022305372406 Rises=F Damp=F
 DIIS: error= 1.59D-02 at cycle  12 NSaved=  12.
 NSaved=12 IEnMin=12 EnMin= -1299.43346900630     IErMin=12 ErrMin= 1.59D-02
 ErrMax= 1.59D-02  0.00D+00 EMaxC= 1.00D-01 BMatC= 3.16D-02 BMatP= 5.76D-02
 IDIUse=3 WtCom= 8.41D-01 WtEn= 1.59D-01
 Coeff-Com:  0.160D-01-0.105D-01-0.329D-01-0.113D+00 0.875D+00-0.919D+00
 Coeff-Com: -0.274D+00 0.186D+01-0.809D-01-0.356D+01 0.113D+00 0.313D+01
 Coeff-En:   0.000D+00 0.000D+00 0.000D+00 0.000D+00 0.000D+00 0.000D+00
 Coeff-En:   0.000D+00 0.000D+00 0.000D+00 0.000D+00 0.000D+00 0.100D+01
 Coeff:      0.135D-01-0.886D-02-0.277D-01-0.951D-01 0.736D+00-0.773D+00
 Coeff:     -0.230D+00 0.156D+01-0.680D-01-0.299D+01 0.951D-01 0.279D+01
 Gap=     0.222 Goal=   None    Shift=    0.000
 Gap=     0.605 Goal=   None    Shift=    0.000
 RMSDP=1.94D-03 MaxDP=5.01D-02 DE=-2.23D-02 OVMax= 8.94D-02

 Cycle  13  Pass 1  IDiag  1:
 E= -1299.44810395818     Delta-E=       -0.014634951880 Rises=F Damp=F
 DIIS: error= 5.03D-03 at cycle  13 NSaved=  13.
 NSaved=13 IEnMin=13 EnMin= -1299.44810395818     IErMin=13 ErrMin= 5.03D-03
 ErrMax= 5.03D-03  0.00D+00 EMaxC= 1.00D-01 BMatC= 3.47D-03 BMatP= 3.16D-02
 IDIUse=3 WtCom= 9.50D-01 WtEn= 5.03D-02
 Coeff-Com:  0.122D-01-0.107D-01-0.970D-02-0.154D-01 0.291D+00-0.341D+00
 Coeff-Com: -0.351D-02 0.448D+00-0.324D+00-0.744D+00 0.773D-01 0.581D+00
 Coeff-Com:  0.104D+01
 Coeff-En:   0.000D+00 0.000D+00 0.000D+00 0.000D+00 0.000D+00 0.000D+00
 Coeff-En:   0.000D+00 0.000D+00 0.000D+00 0.000D+00 0.000D+00 0.000D+00
 Coeff-En:   0.100D+01
 Coeff:      0.116D-01-0.102D-01-0.921D-02-0.147D-01 0.276D+00-0.324D+00
 Coeff:     -0.333D-02 0.425D+00-0.308D+00-0.707D+00 0.734D-01 0.551D+00
 Coeff:      0.104D+01
 Gap=     0.232 Goal=   None    Shift=    0.000
 Gap=     0.628 Goal=   None    Shift=    0.000
 RMSDP=1.14D-03 MaxDP=2.37D-02 DE=-1.46D-02 OVMax= 3.73D-02

 Cycle  14  Pass 1  IDiag  1:
 E= -1299.45072659290     Delta-E=       -0.002622634722 Rises=F Damp=F
 DIIS: error= 7.26D-04 at cycle  14 NSaved=  14.
 NSaved=14 IEnMin=14 EnMin= -1299.45072659290     IErMin=14 ErrMin= 7.26D-04
 ErrMax= 7.26D-04  0.00D+00 EMaxC= 1.00D-01 BMatC= 9.37D-05 BMatP= 3.47D-03
 IDIUse=3 WtCom= 9.93D-01 WtEn= 7.26D-03
 Coeff-Com: -0.150D-01 0.176D-01 0.338D-02 0.303D-01-0.372D+00 0.343D+00
 Coeff-Com:  0.354D+00-0.344D+00-0.345D+00 0.355D+00 0.151D+00-0.167D+00
 Coeff-Com: -0.175D+00 0.116D+01
 Coeff-En:   0.000D+00 0.000D+00 0.000D+00 0.000D+00 0.000D+00 0.000D+00
 Coeff-En:   0.000D+00 0.000D+00 0.000D+00 0.000D+00 0.000D+00 0.000D+00
 Coeff-En:   0.000D+00 0.100D+01
 Coeff:     -0.149D-01 0.175D-01 0.335D-02 0.301D-01-0.369D+00 0.340D+00
 Coeff:      0.351D+00-0.342D+00-0.343D+00 0.353D+00 0.150D+00-0.165D+00
 Coeff:     -0.174D+00 0.116D+01
 Gap=     0.232 Goal=   None    Shift=    0.000
 Gap=     0.631 Goal=   None    Shift=    0.000
 RMSDP=1.53D-04 MaxDP=3.71D-03 DE=-2.62D-03 OVMax= 5.49D-03

 Cycle  15  Pass 1  IDiag  1:
 E= -1299.45078847396     Delta-E=       -0.000061881061 Rises=F Damp=F
 DIIS: error= 1.26D-04 at cycle  15 NSaved=  15.
 NSaved=15 IEnMin=15 EnMin= -1299.45078847396     IErMin=15 ErrMin= 1.26D-04
 ErrMax= 1.26D-04  0.00D+00 EMaxC= 1.00D-01 BMatC= 4.31D-06 BMatP= 9.37D-05
 IDIUse=3 WtCom= 9.99D-01 WtEn= 1.26D-03
 Coeff-Com: -0.219D-02 0.202D-02-0.715D-03 0.113D-01 0.550D-01-0.854D-01
 Coeff-Com: -0.738D-01 0.105D+00 0.115D+00-0.125D+00-0.498D-01 0.529D-01
 Coeff-Com: -0.755D-01-0.539D-01 0.113D+01
 Coeff-En:   0.000D+00 0.000D+00 0.000D+00 0.000D+00 0.000D+00 0.000D+00
 Coeff-En:   0.000D+00 0.000D+00 0.000D+00 0.000D+00 0.000D+00 0.000D+00
 Coeff-En:   0.000D+00 0.000D+00 0.100D+01
 Coeff:     -0.219D-02 0.201D-02-0.714D-03 0.113D-01 0.549D-01-0.853D-01
 Coeff:     -0.737D-01 0.105D+00 0.115D+00-0.125D+00-0.497D-01 0.529D-01
 Coeff:     -0.754D-01-0.538D-01 0.113D+01
 Gap=     0.232 Goal=   None    Shift=    0.000
 Gap=     0.632 Goal=   None    Shift=    0.000
 RMSDP=4.20D-05 MaxDP=1.50D-03 DE=-6.19D-05 OVMax= 1.72D-03

 Cycle  16  Pass 1  IDiag  1:
 E= -1299.45079250347     Delta-E=       -0.000004029507 Rises=F Damp=F
 DIIS: error= 1.35D-04 at cycle  16 NSaved=  16.
 NSaved=16 IEnMin=16 EnMin= -1299.45079250347     IErMin=15 ErrMin= 1.26D-04
 ErrMax= 1.35D-04  0.00D+00 EMaxC= 1.00D-01 BMatC= 1.60D-06 BMatP= 4.31D-06
 IDIUse=3 WtCom= 9.99D-01 WtEn= 1.26D-03
 Coeff-Com: -0.467D-03 0.606D-03 0.162D-03-0.375D-02-0.256D-01 0.281D-01
 Coeff-Com:  0.283D-01-0.286D-01-0.374D-01 0.410D-01 0.186D-01-0.275D-01
 Coeff-Com:  0.122D-01-0.305D-01-0.356D+00 0.138D+01
 Coeff-En:   0.000D+00 0.000D+00 0.000D+00 0.000D+00 0.000D+00 0.000D+00
 Coeff-En:   0.000D+00 0.000D+00 0.000D+00 0.000D+00 0.000D+00 0.000D+00
 Coeff-En:   0.000D+00 0.000D+00 0.000D+00 0.100D+01
 Coeff:     -0.467D-03 0.606D-03 0.162D-03-0.375D-02-0.255D-01 0.280D-01
 Coeff:      0.282D-01-0.285D-01-0.373D-01 0.409D-01 0.186D-01-0.275D-01
 Coeff:      0.122D-01-0.304D-01-0.355D+00 0.138D+01
 Gap=     0.233 Goal=   None    Shift=    0.000
 Gap=     0.632 Goal=   None    Shift=    0.000
 RMSDP=3.70D-05 MaxDP=1.23D-03 DE=-4.03D-06 OVMax= 1.84D-03

 Cycle  17  Pass 1  IDiag  1:
 E= -1299.45079190166     Delta-E=        0.000000601812 Rises=F Damp=F
 DIIS: error= 1.02D-04 at cycle  17 NSaved=  17.
 NSaved=17 IEnMin=16 EnMin= -1299.45079250347     IErMin=17 ErrMin= 1.02D-04
 ErrMax= 1.02D-04  0.00D+00 EMaxC= 1.00D-01 BMatC= 1.03D-06 BMatP= 1.60D-06
 IDIUse=3 WtCom= 9.99D-01 WtEn= 1.02D-03
 Rare condition: small coef for last iteration:  0.000D+00
 Coeff-Com: -0.465D-04 0.643D-04 0.102D-03 0.768D-04-0.134D-02 0.416D-02
 Coeff-Com: -0.908D-03-0.110D-01 0.313D-02 0.205D-01-0.693D-02-0.170D-01
 Coeff-Com:  0.360D-01-0.456D-03-0.626D-01 0.122D-01 0.102D+01
 Coeff-En:   0.000D+00 0.000D+00 0.000D+00 0.000D+00 0.000D+00 0.000D+00
 Coeff-En:   0.000D+00 0.000D+00 0.000D+00 0.000D+00 0.000D+00 0.000D+00
 Coeff-En:   0.000D+00 0.000D+00 0.000D+00 0.000D+00 0.100D+01
 Coeff:     -0.465D-04 0.643D-04 0.102D-03 0.768D-04-0.134D-02 0.416D-02
 Coeff:     -0.908D-03-0.110D-01 0.313D-02 0.205D-01-0.693D-02-0.170D-01
 Coeff:      0.360D-01-0.456D-03-0.626D-01 0.122D-01 0.102D+01
 Gap=     0.232 Goal=   None    Shift=    0.000
 Gap=     0.632 Goal=   None    Shift=    0.000
 RMSDP=2.73D-05 MaxDP=6.54D-04 DE= 6.02D-07 OVMax= 1.08D-03

 Cycle  18  Pass 1  IDiag  1:
 E= -1299.45079317071     Delta-E=       -0.000001269053 Rises=F Damp=F
 DIIS: error= 1.30D-05 at cycle  18 NSaved=  18.
 NSaved=18 IEnMin=18 EnMin= -1299.45079317071     IErMin=18 ErrMin= 1.30D-05
 ErrMax= 1.30D-05  0.00D+00 EMaxC= 1.00D-01 BMatC= 3.16D-08 BMatP= 1.03D-06
 IDIUse=1 WtCom= 1.00D+00 WtEn= 0.00D+00
 Coeff-Com: -0.452D-05 0.689D-05-0.248D-04 0.966D-04 0.594D-03-0.129D-02
 Coeff-Com:  0.157D-03 0.930D-03-0.142D-02-0.637D-04 0.176D-02-0.866D-03
 Coeff-Com: -0.399D-02-0.251D-03 0.278D-01-0.798D-01-0.138D+00 0.119D+01
 Coeff:     -0.452D-05 0.689D-05-0.248D-04 0.966D-04 0.594D-03-0.129D-02
 Coeff:      0.157D-03 0.930D-03-0.142D-02-0.637D-04 0.176D-02-0.866D-03
 Coeff:     -0.399D-02-0.251D-03 0.278D-01-0.798D-01-0.138D+00 0.119D+01
 Gap=     0.233 Goal=   None    Shift=    0.000
 Gap=     0.632 Goal=   None    Shift=    0.000
 RMSDP=3.54D-06 MaxDP=1.15D-04 DE=-1.27D-06 OVMax= 1.55D-04

 Cycle  19  Pass 1  IDiag  1:
 E= -1299.45079317745     Delta-E=       -0.000000006738 Rises=F Damp=F
 DIIS: error= 7.94D-06 at cycle  19 NSaved=  19.
 NSaved=19 IEnMin=19 EnMin= -1299.45079317745     IErMin=19 ErrMin= 7.94D-06
 ErrMax= 7.94D-06  0.00D+00 EMaxC= 1.00D-01 BMatC= 1.11D-08 BMatP= 3.16D-08
 IDIUse=1 WtCom= 1.00D+00 WtEn= 0.00D+00
 Coeff-Com: -0.441D-05-0.226D-05 0.494D-05 0.134D-03 0.362D-03-0.660D-03
 Coeff-Com: -0.609D-03 0.722D-03 0.116D-02-0.969D-03-0.109D-02 0.609D-03
 Coeff-Com:  0.422D-02-0.771D-02-0.673D-03 0.225D-01-0.899D-02-0.481D+00
 Coeff-Com:  0.147D+01
 Coeff:     -0.441D-05-0.226D-05 0.494D-05 0.134D-03 0.362D-03-0.660D-03
 Coeff:     -0.609D-03 0.722D-03 0.116D-02-0.969D-03-0.109D-02 0.609D-03
 Coeff:      0.422D-02-0.771D-02-0.673D-03 0.225D-01-0.899D-02-0.481D+00
 Coeff:      0.147D+01
 Gap=     0.232 Goal=   None    Shift=    0.000
 Gap=     0.632 Goal=   None    Shift=    0.000
 RMSDP=1.99D-06 MaxDP=3.92D-05 DE=-6.74D-09 OVMax= 6.70D-05

 Cycle  20  Pass 1  IDiag  1:
 E= -1299.45079318380     Delta-E=       -0.000000006349 Rises=F Damp=F
 DIIS: error= 8.51D-07 at cycle  20 NSaved=  20.
 NSaved=20 IEnMin=20 EnMin= -1299.45079318380     IErMin=20 ErrMin= 8.51D-07
 ErrMax= 8.51D-07  0.00D+00 EMaxC= 1.00D-01 BMatC= 7.69D-11 BMatP= 1.11D-08
 IDIUse=1 WtCom= 1.00D+00 WtEn= 0.00D+00
 Coeff-Com: -0.351D-05 0.485D-05 0.393D-05-0.228D-04-0.821D-04 0.158D-03
 Coeff-Com: -0.229D-04-0.119D-03 0.129D-03 0.136D-03-0.614D-04-0.136D-03
 Coeff-Com: -0.610D-03 0.207D-02 0.650D-03-0.534D-02 0.235D-01 0.836D-02
 Coeff-Com: -0.344D+00 0.132D+01
 Coeff:     -0.351D-05 0.485D-05 0.393D-05-0.228D-04-0.821D-04 0.158D-03
 Coeff:     -0.229D-04-0.119D-03 0.129D-03 0.136D-03-0.614D-04-0.136D-03
 Coeff:     -0.610D-03 0.207D-02 0.650D-03-0.534D-02 0.235D-01 0.836D-02
 Coeff:     -0.344D+00 0.132D+01
 Gap=     0.232 Goal=   None    Shift=    0.000
 Gap=     0.632 Goal=   None    Shift=    0.000
 RMSDP=1.35D-07 MaxDP=4.44D-06 DE=-6.35D-09 OVMax= 5.99D-06

 Cycle  21  Pass 1  IDiag  1:
 E= -1299.45079318385     Delta-E=       -0.000000000049 Rises=F Damp=F
 DIIS: error= 4.54D-07 at cycle  21 NSaved=  20.
 NSaved=20 IEnMin=20 EnMin= -1299.45079318385     IErMin=20 ErrMin= 4.54D-07
 ErrMax= 4.54D-07  0.00D+00 EMaxC= 1.00D-01 BMatC= 3.17D-11 BMatP= 7.69D-11
 IDIUse=1 WtCom= 1.00D+00 WtEn= 0.00D+00
 Coeff-Com: -0.715D-06-0.364D-06 0.154D-04 0.233D-04-0.476D-04-0.185D-04
 Coeff-Com:  0.155D-04 0.890D-05 0.133D-04 0.194D-04-0.105D-04-0.441D-04
 Coeff-Com: -0.291D-03-0.187D-03 0.122D-02-0.126D-01 0.679D-02 0.154D+00
 Coeff-Com: -0.806D+00 0.166D+01
 Coeff:     -0.715D-06-0.364D-06 0.154D-04 0.233D-04-0.476D-04-0.185D-04
 Coeff:      0.155D-04 0.890D-05 0.133D-04 0.194D-04-0.105D-04-0.441D-04
 Coeff:     -0.291D-03-0.187D-03 0.122D-02-0.126D-01 0.679D-02 0.154D+00
 Coeff:     -0.806D+00 0.166D+01
 Gap=     0.232 Goal=   None    Shift=    0.000
 Gap=     0.632 Goal=   None    Shift=    0.000
 RMSDP=8.87D-08 MaxDP=1.82D-06 DE=-4.87D-11 OVMax= 1.74D-06

 Cycle  22  Pass 1  IDiag  1:
 E= -1299.45079318385     Delta-E=       -0.000000000006 Rises=F Damp=F
 DIIS: error= 1.99D-07 at cycle  22 NSaved=  20.
 NSaved=20 IEnMin=20 EnMin= -1299.45079318385     IErMin=20 ErrMin= 1.99D-07
 ErrMax= 1.99D-07  0.00D+00 EMaxC= 1.00D-01 BMatC= 5.75D-12 BMatP= 3.17D-11
 IDIUse=1 WtCom= 1.00D+00 WtEn= 0.00D+00
 Coeff-Com:  0.336D-06 0.231D-05-0.218D-05 0.493D-05-0.667D-05-0.127D-04
 Coeff-Com:  0.224D-04 0.949D-05-0.395D-04-0.434D-05 0.225D-03-0.284D-03
 Coeff-Com:  0.104D-04-0.602D-04 0.439D-02-0.121D-01-0.731D-02 0.108D+00
 Coeff-Com: -0.498D+00 0.141D+01
 Coeff:      0.336D-06 0.231D-05-0.218D-05 0.493D-05-0.667D-05-0.127D-04
 Coeff:      0.224D-04 0.949D-05-0.395D-04-0.434D-05 0.225D-03-0.284D-03
 Coeff:      0.104D-04-0.602D-04 0.439D-02-0.121D-01-0.731D-02 0.108D+00
 Coeff:     -0.498D+00 0.141D+01
 Gap=     0.232 Goal=   None    Shift=    0.000
 Gap=     0.632 Goal=   None    Shift=    0.000
 RMSDP=3.70D-08 MaxDP=7.77D-07 DE=-5.91D-12 OVMax= 1.18D-06

 Cycle  23  Pass 1  IDiag  1:
 E= -1299.45079318385     Delta-E=       -0.000000000002 Rises=F Damp=F
 DIIS: error= 6.17D-08 at cycle  23 NSaved=  20.
 NSaved=20 IEnMin=20 EnMin= -1299.45079318385     IErMin=20 ErrMin= 6.17D-08
 ErrMax= 6.17D-08  0.00D+00 EMaxC= 1.00D-01 BMatC= 3.25D-13 BMatP= 5.75D-12
 IDIUse=1 WtCom= 1.00D+00 WtEn= 0.00D+00
 Coeff-Com:  0.270D-06 0.104D-05-0.966D-06-0.656D-06-0.405D-06-0.988D-06
 Coeff-Com:  0.316D-05 0.395D-05-0.441D-05-0.420D-04 0.876D-04 0.162D-04
 Coeff-Com: -0.184D-03-0.182D-03 0.209D-02 0.304D-02-0.164D-01 0.919D-01
 Coeff-Com: -0.469D+00 0.139D+01
 Coeff:      0.270D-06 0.104D-05-0.966D-06-0.656D-06-0.405D-06-0.988D-06
 Coeff:      0.316D-05 0.395D-05-0.441D-05-0.420D-04 0.876D-04 0.162D-04
 Coeff:     -0.184D-03-0.182D-03 0.209D-02 0.304D-02-0.164D-01 0.919D-01
 Coeff:     -0.469D+00 0.139D+01
 Gap=     0.232 Goal=   None    Shift=    0.000
 Gap=     0.632 Goal=   None    Shift=    0.000
 RMSDP=1.58D-08 MaxDP=3.53D-07 DE=-2.27D-12 OVMax= 5.50D-07

 Cycle  24  Pass 1  IDiag  1:
 E= -1299.45079318386     Delta-E=       -0.000000000002 Rises=F Damp=F
 DIIS: error= 9.62D-09 at cycle  24 NSaved=  20.
 NSaved=20 IEnMin=20 EnMin= -1299.45079318386     IErMin=20 ErrMin= 9.62D-09
 ErrMax= 9.62D-09  0.00D+00 EMaxC= 1.00D-01 BMatC= 1.18D-14 BMatP= 3.25D-13
 IDIUse=1 WtCom= 1.00D+00 WtEn= 0.00D+00
 Large coefficients: NSaved= 20 BigCof=    0.00 CofMax=   10.00 Det=-9.50D-16
 Inversion failed.  Reducing to 19 matrices.
 Large coefficients: NSaved= 19 BigCof=    0.00 CofMax=   10.00 Det=-9.52D-16
 Inversion failed.  Reducing to 18 matrices.
 Large coefficients: NSaved= 18 BigCof=    0.00 CofMax=   10.00 Det=-9.66D-16
 Inversion failed.  Reducing to 17 matrices.
 Large coefficients: NSaved= 17 BigCof=    0.00 CofMax=   10.00 Det=-1.09D-15
 Inversion failed.  Reducing to 16 matrices.
 Large coefficients: NSaved= 16 BigCof=    0.00 CofMax=   10.00 Det=-1.12D-15
 Inversion failed.  Reducing to 15 matrices.
 Coeff-Com: -0.116D-06-0.151D-06 0.427D-06 0.441D-05-0.111D-04-0.555D-05
 Coeff-Com:  0.119D-04 0.342D-04-0.211D-04-0.932D-03 0.523D-03-0.158D-02
 Coeff-Com:  0.372D-01-0.223D+00 0.119D+01
 Coeff:     -0.116D-06-0.151D-06 0.427D-06 0.441D-05-0.111D-04-0.555D-05
 Coeff:      0.119D-04 0.342D-04-0.211D-04-0.932D-03 0.523D-03-0.158D-02
 Coeff:      0.372D-01-0.223D+00 0.119D+01
 Gap=     0.232 Goal=   None    Shift=    0.000
 Gap=     0.632 Goal=   None    Shift=    0.000
 RMSDP=1.13D-09 MaxDP=2.03D-08 DE=-2.27D-12 OVMax= 4.58D-08

 SCF Done:  E(UHF) =  -1299.45079318     A.U. after   24 cycles
            NFock= 24  Conv=0.11D-08     -V/T= 2.0001
 <Sx>= 0.0000 <Sy>= 0.0000 <Sz>= 1.5000 <S**2>= 6.1718 S= 2.0341
 <L.S>= 0.000000000000E+00
 KE= 1.299264443554D+03 PE=-3.337864518701D+03 EE= 6.149433176326D+02
 Annihilation of the first spin contaminant:
 S**2 before annihilation     6.1718,   after     7.7096
 Leave Link  502 at Wed Oct 28 10:11:30 2015, MaxMem=    33554432 cpu:               5.3 elap:               5.3
 (Enter /home/gauss/gdvi03p/gdv/l801.exe)
 Range of M.O.s used for correlation:     1    71
 NBasis=    71 NAE=    22 NBE=    19 NFC=     0 NFV=     0
 NROrb=     71 NOA=    22 NOB=    19 NVA=    49 NVB=    52
 Leave Link  801 at Wed Oct 28 10:11:30 2015, MaxMem=    33554432 cpu:               0.0 elap:               0.0
 (Enter /home/gauss/gdvi03p/gdv/l804.exe)
 Open-shell transformation, MDV=    33554432 ITran=3 ISComp=1.
 Unit  1 TFree=        308996 TCopy=        239306.
 Semi-Direct transformation.
 ModeAB=           2 MOrb=            22 LenV=      33077120
 LASXX=      1709554 LTotXX=     1709554 LenRXX=     1709554
 LTotAB=     1916552 MaxLAS=     4935920 LenRXY=     4935920
 NonZer=     5132732 LenScr=     8464896 LnRSAI=           0
 LnScr1=           0 LExtra=           0 Total=     15110370
 MaxDsk=          -1 SrtSym=           F ITran=            3
 DoSDTr:  NPSUse=  1
 JobTyp=1 Pass  1:  I=   1 to  22.
 (rs|ai) integrals will be sorted in core.
 Complete sort for first half transformation.
 First half transformation complete.
 Begin second half transformation for I=  10.
 Begin second half transformation for I=  20.
 Begin second half transformation for I=  10.
 Begin second half transformation for I=  20.
 Complete sort for second half transformation.
 Second half transformation complete.
 ModeAB=           2 MOrb=            19 LenV=      33077120
 LASXX=      1386544 LTotXX=     1386544 LenRXX=     4262840
 LTotAB=      232750 MaxLAS=     4262840 LenRXY=      232750
 NonZer=     4432814 LenScr=     7383040 LnRSAI=           0
 LnScr1=           0 LExtra=           0 Total=     11878630
 MaxDsk=          -1 SrtSym=           F ITran=            3
 DoSDTr:  NPSUse=  1
 JobTyp=2 Pass  1:  I=   1 to  19.
 (rs|ai) integrals will be sorted in core.
 Complete sort for first half transformation.
 First half transformation complete.
 Begin second half transformation for I=  10.
 Begin second half transformation for I=  10.
 Complete sort for second half transformation.
 Second half transformation complete.
 Spin components of T(2) and E(2):
     alpha-alpha T2 =       0.1287964617D+00 E2=     -0.1916779242D+00
     alpha-beta  T2 =       0.1057604634D+00 E2=     -0.4088467264D+00
     beta-beta   T2 =       0.1671891606D-01 E2=     -0.8090856367D-01
 ANorm=    0.1118604417D+01
 E2 =    -0.6814332142D+00 EUMP2 =    -0.13001322263981D+04
 (S**2,0)=  0.61718D+01           (S**2,1)=  0.59855D+01
 E(PUHF)=      -0.12995080680D+04        E(PMP2)=      -0.13001885497D+04
 Leave Link  804 at Wed Oct 28 10:11:53 2015, MaxMem=    33554432 cpu:              22.7 elap:              22.7
 (Enter /home/gauss/gdvi03p/gdv/l914.exe)
 UHF ground state
 MDV=    33554432 DFT=F DoStab=F Mixed=F DoRPA=T DoScal=F NonHer=T
 Making orbital integer symmetry assigments:
 FoFJK:  IHMeth= 1 ICntrl=       0 DoSepK=F KAlg= 0 I1Cent=           0 FoldK=F
 IRaf=         0 NMat=       2 IRICut=       1 DoRegI=T DoRafI=F ISym2E= 0 IDoP0=0 IntGTp=1.
 FoFCou: FMM=F IPFlag=           0 FMFlag=      100000 FMFlg1=           0
         NFxFlg=           0 DoJE=F BraDBF=F KetDBF=F FulRan=T
         wScrn=  0.000000 ICntrl=         0 IOpCl=  1 I1Cent=           0 NGrid=           0
         NMat0=    2 NMatS0=      2 NMatT0=    0 NMatD0=    2 NMtDS0=    0 NMtDT0=    0
 Symmetry not used in FoFCou.
    48 initial guesses have been made.
 Convergence on wavefunction:    0.001000000000000
 Davidson Disk Diagonalization:  ConvIn= 1.00D-03 SkipCon=T Conv= 1.00D-03.
 Max sub-space:   200 roots to seek:    48 dimension of matrix:         2066
 Iteration     1 Dimension    48 NMult     0 NNew     48
 New state      1 was old state      2
 New state      2 was old state      1
 New state      3 was old state      6
 New state      4 was old state      5
 New state      5 was old state      3
 New state      6 was old state     13
 New state      7 was old state     14
 New state      8 was old state      4
 New state      9 was old state      7
 New state     10 was old state      9
 New state     11 was old state     10
 New state     12 was old state     11
 Excitation Energies [eV] at current iteration:
 Root      1 :    -3.015947069280227
 Root      2 :    -3.015947069280049
 Root      3 :     2.150657465204002
 Root      4 :     2.150657465204270
 Root      5 :     3.034533233413162
 Root      6 :     3.045251741266586
 Root      7 :     3.045251741266883
 Root      8 :     3.293779173030619
 Root      9 :     3.815255348036513
 Root     10 :     3.815255348036599
 Root     11 :     3.923360251525156
 Root     12 :     4.024914407011762
 Root     13 :     4.024914407012089
 Root     14 :     5.678939134382684
 Root     15 :     5.856006186678107
 Root     16 :     5.856006186678431
 Root     17 :     7.000860089926344
 Root     18 :     7.000860089926743
 Root     19 :     7.534872999586551
 Root     20 :     7.534872999586584
 Root     21 :     7.670109579153526
 Root     22 :     7.971055281841702
 Root     23 :     7.971055281841702
 Root     24 :     8.046193341382111
 Root     25 :     8.477678252288026
 Root     26 :     8.477678252288074
 Root     27 :     8.559208985276399
 Root     28 :     8.990236653623093
 Root     29 :     8.990236653623111
 Root     30 :     9.055424082513035
 Root     31 :     9.081759988142935
 Root     32 :     9.081759988143260
 Root     33 :     9.951783698602016
 Root     34 :    11.145958946895020
 Root     35 :    14.292731684458890
 Root     36 :    15.360102980659170
 Root     37 :    15.788381696424700
 Root     38 :    15.788381696424920
 Root     39 :    15.856033739554270
 Root     40 :    15.856033739554820
 Root     41 :    16.604142367652030
 Root     42 :    16.604142367652260
 Root     43 :    16.655461608904360
 Root     44 :    16.655461608904880
 Root     45 :    17.559565566598040
 Root     46 :    17.559565566598050
 Root     47 :    17.570840074512350
 Root     48 :    17.570840074512360
 Iteration     2 Dimension    72 NMult    48 NNew     24
 Root      1 not converged, maximum delta is    0.293834325543607
 Root      2 not converged, maximum delta is    0.293834325543622
 New state      3 was old state      4
 Root      3 not converged, maximum delta is    0.856620928861865
 New state      4 was old state      3
 Root      4 not converged, maximum delta is    0.856620928861562
 New state      5 was old state      6
 Root      5 not converged, maximum delta is    0.738191933344132
 New state      6 was old state      7
 Root      6 not converged, maximum delta is    0.738191933344451
 New state      7 was old state      8
 Root      7 not converged, maximum delta is    0.096103213719885
 New state      8 was old state     12
 Root      8 not converged, maximum delta is    0.290596168450434
 New state      9 was old state      5
 Root      9 not converged, maximum delta is    0.044997838371988
 New state     10 was old state      9
 Root     10 not converged, maximum delta is    0.253069215062871
 New state     11 was old state     10
 Root     11 not converged, maximum delta is    0.253069215063302
 New state     12 was old state     11
 Root     12 not converged, maximum delta is    0.016369657424580
 Excitation Energies [eV] at current iteration:
 Root      1 :    -3.051794021567244   Change is   -0.035846952287018
 Root      2 :    -3.051794021567177   Change is   -0.035846952287128
 Root      3 :    -0.723134538667280   Change is   -2.873792003871550
 Root      4 :    -0.723134538667166   Change is   -2.873792003871168
 Root      5 :     1.126531067000138   Change is   -1.918720674266448
 Root      6 :     1.126531067000503   Change is   -1.918720674266380
 Root      7 :     2.062611286441380   Change is   -1.231167886589239
 Root      8 :     2.216378494128315   Change is   -1.808535912883447
 Root      9 :     2.989629550100015   Change is   -0.044903683313148
 Root     10 :     3.687633770656709   Change is   -0.127621577379803
 Root     11 :     3.687633770656754   Change is   -0.127621577379845
 Root     12 :     3.872515354031751   Change is   -0.050844897493405
 Iteration     3 Dimension    96 NMult    72 NNew     24
 Root      1 not converged, maximum delta is    0.264855269535654
 Root      2 not converged, maximum delta is    0.264855269535694
 Root      3 not converged, maximum delta is    0.634912328454007
 Root      4 not converged, maximum delta is    0.634912328453673
 Root      5 not converged, maximum delta is    0.041264142651756
 Root      6 not converged, maximum delta is    0.041264142651440
 Root      7 not converged, maximum delta is    0.033086101620200
 Root      8 not converged, maximum delta is    0.051160317049260
 Root      9 not converged, maximum delta is    0.002647069282656
 Root     10 not converged, maximum delta is    0.266223756230128
 Root     11 not converged, maximum delta is    0.266223756230333
 Root     12 has converged.
 Excitation Energies [eV] at current iteration:
 Root      1 :    -3.058215541352513   Change is   -0.006421519785269
 Root      2 :    -3.058215541352324   Change is   -0.006421519785147
 Root      3 :    -0.765036737928903   Change is   -0.041902199261623
 Root      4 :    -0.765036737928688   Change is   -0.041902199261522
 Root      5 :     1.037357396499698   Change is   -0.089173670500440
 Root      6 :     1.037357396500173   Change is   -0.089173670500330
 Root      7 :     1.951375112512976   Change is   -0.111236173928404
 Root      8 :     2.076471351631842   Change is   -0.139907142496473
 Root      9 :     2.998713670763531   Change is    0.009084120663516
 Root     10 :     3.683510921904560   Change is   -0.004122848752149
 Root     11 :     3.683510921904671   Change is   -0.004122848752082
 Root     12 :     3.872206842295450   Change is   -0.000308511736301
 Iteration     4 Dimension   118 NMult    96 NNew     22
 New state      1 was old state      2
 Root      1 not converged, maximum delta is    0.221719467796127
 New state      2 was old state      1
 Root      2 not converged, maximum delta is    0.221719467796098
 Root      3 not converged, maximum delta is    0.569494004135480
 Root      4 not converged, maximum delta is    0.569494004135532
 Root      5 not converged, maximum delta is    0.471675203252342
 Root      6 not converged, maximum delta is    0.471675203251984
 Root      7 not converged, maximum delta is    0.008743006727148
 Root      8 not converged, maximum delta is    0.007234199027834
 Root      9 not converged, maximum delta is    0.001605527277167
 Root     10 not converged, maximum delta is    0.002042698934798
 Root     11 not converged, maximum delta is    0.002042698934801
 Root     12 has converged.
 Excitation Energies [eV] at current iteration:
 Root      1 :    -3.057586873271195   Change is    0.000628668081129
 Root      2 :    -3.057586873271195   Change is    0.000628668081317
 Root      3 :    -0.766549512379820   Change is   -0.001512774450917
 Root      4 :    -0.766549512379713   Change is   -0.001512774451025
 Root      5 :     1.036106578609606   Change is   -0.001250817890091
 Root      6 :     1.036106578609606   Change is   -0.001250817890567
 Root      7 :     1.944036691890611   Change is   -0.007338420622365
 Root      8 :     2.072313631033812   Change is   -0.004157720598031
 Root      9 :     3.011233974300300   Change is    0.012520303536769
 Root     10 :     3.683304688613458   Change is   -0.000206233291103
 Root     11 :     3.683304688613703   Change is   -0.000206233290968
 Root     12 :     3.872206842295578   Change is    0.000000000000128
 Iteration     5 Dimension   140 NMult   118 NNew     22
 DSYEVD-2 returned Info=       10151 IAlg= 4 N=   140 NDim=   140 NE2=      237792 trying  DSYEV.
 New state      1 was old state      2
 Root      1 not converged, maximum delta is    0.150931572065137
 New state      2 was old state      1
 Root      2 not converged, maximum delta is    0.150931572065150
 New state      3 was old state      4
 Root      3 not converged, maximum delta is    0.346175418106741
 New state      4 was old state      3
 Root      4 not converged, maximum delta is    0.346175418106928
 New state      5 was old state      6
 Root      5 not converged, maximum delta is    0.330148918181051
 New state      6 was old state      5
 Root      6 not converged, maximum delta is    0.330148918180790
 Root      7 not converged, maximum delta is    0.002370646933387
 Root      8 not converged, maximum delta is    0.001603158087026
 Root      9 has converged.
 Root     10 not converged, maximum delta is    0.109791406976184
 Root     11 not converged, maximum delta is    0.109791406976211
 Root     12 has converged.
 Excitation Energies [eV] at current iteration:
 Root      1 :    -3.056968718751903   Change is    0.000618154519293
 Root      2 :    -3.056968718751705   Change is    0.000618154519490
 Root      3 :    -0.766485561728474   Change is    0.000063950651239
 Root      4 :    -0.766485561727890   Change is    0.000063950651930
 Root      5 :     1.036081299899829   Change is   -0.000025278709777
 Root      6 :     1.036081299900595   Change is   -0.000025278709012
 Root      7 :     1.943150570300680   Change is   -0.000886121589931
 Root      8 :     2.072111336527625   Change is   -0.000202294506187
 Root      9 :     3.014286747908520   Change is    0.003052773608220
 Root     10 :     3.683280720072101   Change is   -0.000023968541357
 Root     11 :     3.683280720072528   Change is   -0.000023968541175
 Root     12 :     3.872206842295568   Change is   -0.000000000000010
 Iteration     6 Dimension   160 NMult   140 NNew     20
 Root      1 not converged, maximum delta is    0.062926621575096
 Root      2 not converged, maximum delta is    0.062926621575089
 Root      3 not converged, maximum delta is    0.708200025260984
 Root      4 not converged, maximum delta is    0.708200025261152
 Root      5 not converged, maximum delta is    0.480709037075553
 Root      6 not converged, maximum delta is    0.480709037075380
 Root      7 not converged, maximum delta is    0.001312366309595
 Root      8 has converged.
 Root      9 has converged.
 New state     10 was old state     11
 Root     10 has converged.
 New state     11 was old state     10
 Root     11 has converged.
 Root     12 has converged.
 Excitation Energies [eV] at current iteration:
 Root      1 :    -3.055465120088441   Change is    0.001503598663461
 Root      2 :    -3.055465120087566   Change is    0.001503598664139
 Root      3 :    -0.766369621702267   Change is    0.000115940026207
 Root      4 :    -0.766369621701570   Change is    0.000115940026320
 Root      5 :     1.036080649347467   Change is   -0.000000650552362
 Root      6 :     1.036080649347705   Change is   -0.000000650552890
 Root      7 :     1.943064195184548   Change is   -0.000086375116132
 Root      8 :     2.072100038629940   Change is   -0.000011297897685
 Root      9 :     3.014286747908616   Change is    0.000000000000095
 Root     10 :     3.683280070704431   Change is   -0.000000649368097
 Root     11 :     3.683280070704744   Change is   -0.000000649367357
 Root     12 :     3.872206842295450   Change is   -0.000000000000118
 Iteration     7 Dimension   172 NMult   160 NNew     12
 DSYEVD-2 returned Info=         345 IAlg= 4 N=   172 NDim=   172 NE2=      193552 trying  DSYEV.
 Root      1 not converged, maximum delta is    0.202035220347052
 Root      2 not converged, maximum delta is    0.202035220347095
 New state      3 was old state      4
 Root      3 not converged, maximum delta is    0.468359360751950
 New state      4 was old state      3
 Root      4 not converged, maximum delta is    0.468359360752253
 New state      5 was old state      6
 Root      5 not converged, maximum delta is    0.233035726605263
 New state      6 was old state      5
 Root      6 not converged, maximum delta is    0.233035726605172
 Root      7 has converged.
 Root      8 has converged.
 Root      9 has converged.
 New state     10 was old state     11
 Root     10 not converged, maximum delta is    0.110248505362269
 New state     11 was old state     10
 Root     11 not converged, maximum delta is    0.110248505362403
 Root     12 has converged.
 Excitation Energies [eV] at current iteration:
 Root      1 :    -3.055435205027337   Change is    0.000029915061104
 Root      2 :    -3.055435205026475   Change is    0.000029915061091
 Root      3 :    -0.766229455827169   Change is    0.000140165874401
 Root      4 :    -0.766229455826364   Change is    0.000140165875903
 Root      5 :     1.036080639487380   Change is   -0.000000009860325
 Root      6 :     1.036080639487538   Change is   -0.000000009859929
 Root      7 :     1.943060901259245   Change is   -0.000003293925303
 Root      8 :     2.072100038629979   Change is    0.000000000000040
 Root      9 :     3.014286747908534   Change is   -0.000000000000082
 Root     10 :     3.683280070704766   Change is    0.000000000000022
 Root     11 :     3.683280070704922   Change is    0.000000000000491
 Root     12 :     3.872206842295578   Change is    0.000000000000128
 Iteration     8 Dimension   184 NMult   172 NNew     12
 DSYEVD-2 returned Info=         369 IAlg= 4 N=   184 NDim=   184 NE2=      180929 trying  DSYEV.
 New state      1 was old state      2
 Root      1 not converged, maximum delta is    0.102115712675525
 New state      2 was old state      1
 Root      2 not converged, maximum delta is    0.102115712675517
 Root      3 not converged, maximum delta is    0.359829374198677
 Root      4 not converged, maximum delta is    0.359829374209178
 Root      5 not converged, maximum delta is    0.434667427413436
 Root      6 not converged, maximum delta is    0.434667427414130
 Root      7 has converged.
 Root      8 has converged.
 Root      9 has converged.
 Root     10 not converged, maximum delta is    0.003328773274377
 Root     11 not converged, maximum delta is    0.003328773274453
 Root     12 has converged.
 Excitation Energies [eV] at current iteration:
 Root      1 :    -3.055406724292148   Change is    0.000028480734328
 Root      2 :    -3.055406724291771   Change is    0.000028480735566
 Root      3 :    -0.766046959613480   Change is    0.000182496213689
 Root      4 :    -0.766046959602105   Change is    0.000182496224259
 Root      5 :     1.036080639417715   Change is   -0.000000000069665
 Root      6 :     1.036080639418191   Change is   -0.000000000069347
 Root      7 :     1.943060901258695   Change is   -0.000000000000550
 Root      8 :     2.072100038629741   Change is   -0.000000000000238
 Root      9 :     3.014286747908561   Change is    0.000000000000027
 Root     10 :     3.683280058456353   Change is   -0.000000012248413
 Root     11 :     3.683280058456621   Change is   -0.000000012248301
 Root     12 :     3.872206842295662   Change is    0.000000000000085
 Iteration     9 Dimension   194 NMult   184 NNew     10
 New state      1 was old state      2
 Root      1 not converged, maximum delta is    0.030820102741096
 New state      2 was old state      1
 Root      2 not converged, maximum delta is    0.030820102740998
 Root      3 not converged, maximum delta is    0.324125256367358
 Root      4 not converged, maximum delta is    0.324125256367467
 Root      5 not converged, maximum delta is    0.191628492244559
 Root      6 not converged, maximum delta is    0.191628492245658
 Root      7 has converged.
 Root      8 has converged.
 Root      9 has converged.
 Root     10 not converged, maximum delta is    0.322381810951648
 Root     11 not converged, maximum delta is    0.322381810951751
 Root     12 has converged.
 Excitation Energies [eV] at current iteration:
 Root      1 :    -3.055375799498623   Change is    0.000030924793149
 Root      2 :    -3.055375799497465   Change is    0.000030924794683
 Root      3 :    -0.765795033248114   Change is    0.000251926365366
 Root      4 :    -0.765795032946194   Change is    0.000251926655911
 Root      5 :     1.036080638824931   Change is   -0.000000000592784
 Root      6 :     1.036080638826914   Change is   -0.000000000591277
 Root      7 :     1.943060901258780   Change is    0.000000000000085
 Root      8 :     2.072100038629860   Change is    0.000000000000119
 Root      9 :     3.014286747908588   Change is    0.000000000000027
 Root     10 :     3.683280058456465   Change is    0.000000000000112
 Root     11 :     3.683280058456621   Change is    0.000000000000000
 Root     12 :     3.872206842295641   Change is   -0.000000000000021
 Davidson failed to converge within maximum sub-space dimensions.
  Restart with updated initial guess:
 Iteration     1 Dimension    32 NMult   194 NNew     32
 Excitation Energies [eV] at current iteration:
 Root      1 :    -3.055262509020140
 Root      2 :    -3.055262508981946
 Root      3 :    -0.765633144170665
 Root      4 :    -0.765633132598923
 Root      5 :     1.036080638824375
 Root      6 :     1.036080638824613
 Root      7 :     1.943060901258695
 Root      8 :     2.072100038629821
 Root      9 :     3.010294092431288
 Root     10 :     3.683280058456420
 Root     11 :     3.683280058456488
 Root     12 :     3.872206842295683
 Iteration     2 Dimension    48 NMult   226 NNew     16
 New state      1 was old state      2
 Root      1 has converged.
 New state      2 was old state      1
 Root      2 has converged.
 Root      3 not converged, maximum delta is    0.001252931184377
 Root      4 not converged, maximum delta is    0.001252931272810
 Root      5 not converged, maximum delta is    0.277155316528897
 Root      6 not converged, maximum delta is    0.277155316544357
 Root      7 has converged.
 Root      8 has converged.
 Root      9 has converged.
 New state     10 was old state     11
 Root     10 not converged, maximum delta is    0.302421113811214
 New state     11 was old state     10
 Root     11 not converged, maximum delta is    0.302421113810960
 Root     12 has converged.
 Excitation Energies [eV] at current iteration:
 Root      1 :    -3.055242208120234   Change is    0.000020300861712
 Root      2 :    -3.055242208119965   Change is    0.000020300900175
 Root      3 :    -0.765631112151002   Change is    0.000002032019663
 Root      4 :    -0.765631095909718   Change is    0.000002036689204
 Root      5 :     1.036080638818583   Change is   -0.000000000005792
 Root      6 :     1.036080638819535   Change is   -0.000000000005078
 Root      7 :     1.943060799533444   Change is   -0.000000101725251
 Root      8 :     2.072099359780917   Change is   -0.000000678848904
 Root      9 :     3.015554813221821   Change is    0.005260720790532
 Root     10 :     3.683280058456443   Change is   -0.000000000000045
 Root     11 :     3.683280058456488   Change is    0.000000000000067
 Root     12 :     3.872200498646430   Change is   -0.000006343649254
 Iteration     3 Dimension    54 NMult   242 NNew      6
 Root      1 not converged, maximum delta is    0.085806779281970
 Root      2 not converged, maximum delta is    0.085806779282070
 Root      3 has converged.
 Root      4 has converged.
 Root      5 not converged, maximum delta is    0.272110553333541
 Root      6 not converged, maximum delta is    0.272110553408281
 Root      7 has converged.
 Root      8 has converged.
 Root      9 has converged.
 Root     10 not converged, maximum delta is    0.081616129344960
 Root     11 not converged, maximum delta is    0.081616129344864
 Root     12 has converged.
 Excitation Energies [eV] at current iteration:
 Root      1 :    -3.055242208120127   Change is    0.000000000000108
 Root      2 :    -3.055242208119952   Change is    0.000000000000014
 Root      3 :    -0.765617375833572   Change is    0.000013736317430
 Root      4 :    -0.765617265597302   Change is    0.000013830312417
 Root      5 :     1.036080638815806   Change is   -0.000000000002777
 Root      6 :     1.036080638816441   Change is   -0.000000000003095
 Root      7 :     1.943060799533359   Change is   -0.000000000000085
 Root      8 :     2.072099359781036   Change is    0.000000000000119
 Root      9 :     3.015554813220621   Change is   -0.000000000001199
 Root     10 :     3.683280058323488   Change is   -0.000000000132955
 Root     11 :     3.683280058323510   Change is   -0.000000000132978
 Root     12 :     3.872200498646535   Change is    0.000000000000106
 Iteration     4 Dimension    58 NMult   248 NNew      4
 New state      1 was old state      2
 Root      1 not converged, maximum delta is    0.085941387693886
 New state      2 was old state      1
 Root      2 not converged, maximum delta is    0.085941387759094
 Root      3 has converged.
 Root      4 has converged.
 Root      5 not converged, maximum delta is    0.538913393425537
 Root      6 not converged, maximum delta is    0.538913393387004
 Root      7 has converged.
 Root      8 has converged.
 Root      9 has converged.
 Root     10 not converged, maximum delta is    0.222440694033336
 Root     11 not converged, maximum delta is    0.222440694033086
 Root     12 has converged.
 Excitation Energies [eV] at current iteration:
 Root      1 :    -3.055132702115839   Change is    0.000109506004113
 Root      2 :    -3.055132699239939   Change is    0.000109508880188
 Root      3 :    -0.765617375833787   Change is   -0.000000000000215
 Root      4 :    -0.765617265597302   Change is    0.000000000000000
 Root      5 :     1.036080638815727   Change is   -0.000000000000079
 Root      6 :     1.036080638816203   Change is   -0.000000000000238
 Root      7 :     1.943060799533317   Change is   -0.000000000000042
 Root      8 :     2.072099359780956   Change is   -0.000000000000079
 Root      9 :     3.015554813220594   Change is   -0.000000000000027
 Root     10 :     3.683280058323465   Change is   -0.000000000000023
 Root     11 :     3.683280058323577   Change is    0.000000000000067
 Root     12 :     3.872200498646515   Change is   -0.000000000000021
 Iteration     5 Dimension    62 NMult   252 NNew      4
 Root      1 has converged.
 Root      2 has converged.
 Root      3 has converged.
 Root      4 has converged.
 Root      5 not converged, maximum delta is    0.589491826550949
 Root      6 not converged, maximum delta is    0.589491826506645
 Root      7 has converged.
 Root      8 has converged.
 Root      9 has converged.
 Root     10 not converged, maximum delta is    0.089314027420924
 Root     11 not converged, maximum delta is    0.089314027420818
 Root     12 has converged.
 Excitation Energies [eV] at current iteration:
 Root      1 :    -3.055088815954234   Change is    0.000043886161605
 Root      2 :    -3.055088811896570   Change is    0.000043887343368
 Root      3 :    -0.765617375833841   Change is   -0.000000000000054
 Root      4 :    -0.765617265597087   Change is    0.000000000000215
 Root      5 :     1.036080638815568   Change is   -0.000000000000159
 Root      6 :     1.036080638815965   Change is   -0.000000000000238
 Root      7 :     1.943060799533317   Change is    0.000000000000000
 Root      8 :     2.072099359781075   Change is    0.000000000000119
 Root      9 :     3.015554813220621   Change is    0.000000000000027
 Root     10 :     3.683280058323465   Change is    0.000000000000000
 Root     11 :     3.683280058323577   Change is    0.000000000000000
 Root     12 :     3.872200498646515   Change is    0.000000000000000
 Convergence achieved on expansion vectors.
 ***********************************************************************
 Excited states from <AA,BB:AA,BB> singles matrix:
 ***********************************************************************
 
 ExtSpn:  IState=     1 X2= 1.095 Y2= 0.095 X2-Y2-1= 6.66D-16
          S2Grnd=  6.172 Ra= -0.150 Rb=  0.000 T= -0.005 S2Ext= -0.154 S2=  6.018
 ExtSpn:  IState=     2 X2= 1.095 Y2= 0.095 X2-Y2-1= 4.44D-16
          S2Grnd=  6.172 Ra= -0.150 Rb=  0.000 T= -0.005 S2Ext= -0.154 S2=  6.018
 ExtSpn:  IState=     3 X2= 1.771 Y2= 0.771 X2-Y2-1= 1.78D-15
          S2Grnd=  6.172 Ra= -0.109 Rb=  0.000 T= -0.011 S2Ext= -0.120 S2=  6.052
 ExtSpn:  IState=     4 X2= 1.771 Y2= 0.771 X2-Y2-1= 1.55D-15
          S2Grnd=  6.172 Ra= -0.109 Rb=  0.000 T= -0.011 S2Ext= -0.120 S2=  6.052
 ExtSpn:  IState=     5 X2= 1.913 Y2= 0.913 X2-Y2-1= 8.88D-16
          S2Grnd=  6.172 Ra=  0.950 Rb=  0.000 T=  0.033 S2Ext=  0.983 S2=  7.155
 ExtSpn:  IState=     6 X2= 1.913 Y2= 0.913 X2-Y2-1=-3.33D-16
          S2Grnd=  6.172 Ra=  0.950 Rb=  0.000 T=  0.033 S2Ext=  0.983 S2=  7.155
 ExtSpn:  IState=     7 X2= 1.046 Y2= 0.046 X2-Y2-1= 0.00D+00
          S2Grnd=  6.172 Ra= -0.092 Rb=  0.002 T= -0.056 S2Ext= -0.146 S2=  6.026
 ExtSpn:  IState=     8 X2= 1.009 Y2= 0.009 X2-Y2-1= 1.33D-15
          S2Grnd=  6.172 Ra=  0.012 Rb=  0.000 T=  0.011 S2Ext=  0.023 S2=  6.195
 ExtSpn:  IState=     9 X2= 1.081 Y2= 0.081 X2-Y2-1= 8.88D-16
          S2Grnd=  6.172 Ra= -0.121 Rb=  0.000 T=  0.000 S2Ext= -0.121 S2=  6.051
 ExtSpn:  IState=    10 X2= 1.032 Y2= 0.032 X2-Y2-1= 4.44D-16
          S2Grnd=  6.172 Ra=  0.429 Rb=  0.000 T=  0.009 S2Ext=  0.439 S2=  6.610
 ExtSpn:  IState=    11 X2= 1.032 Y2= 0.032 X2-Y2-1=-2.22D-16
          S2Grnd=  6.172 Ra=  0.429 Rb=  0.000 T=  0.009 S2Ext=  0.439 S2=  6.610
 ExtSpn:  IState=    12 X2= 1.026 Y2= 0.026 X2-Y2-1=-2.22D-16
          S2Grnd=  6.172 Ra=  0.432 Rb=  0.000 T=  0.000 S2Ext=  0.432 S2=  6.604
 1PDM for each excited state written to RWF  633
 Ground to excited state transition densities written to RWF  633
 Ground to excited state transition electric dipole moments (Au):
       state          X           Y           Z        Dip. S.      Osc.
         1         0.0000      0.0000      0.0000      0.0000      0.0000
         2         0.0000      0.0000      0.0000      0.0000      0.0000
         3        -0.9848     -1.3006      0.0000      2.6613     -0.0499
         4        -1.3006      0.9848      0.0000      2.6613     -0.0499
         5        -0.8194     -0.9462      0.0000      1.5668      0.0398
         6        -0.9462      0.8194      0.0000      1.5668      0.0398
         7         0.0000      0.0000     -2.8427      8.0809      0.3847
         8         0.0000      0.0000      0.0000      0.0000      0.0000
         9         0.0000      0.0000      0.0000      0.0000      0.0000
        10         0.0000      0.0000      0.0000      0.0000      0.0000
        11         0.0000      0.0000      0.0000      0.0000      0.0000
        12         0.0000      0.0000      0.0000      0.0000      0.0000
 Ground to excited state transition velocity dipole moments (Au):
       state          X           Y           Z        Dip. S.      Osc.
         1         0.0000      0.0000      0.0000      0.0000      0.0000
         2         0.0000      0.0000      0.0000      0.0000      0.0000
         3         0.0371      0.0490      0.0000      0.0038     -0.0893
         4         0.0490     -0.0371      0.0000      0.0038     -0.0893
         5         0.0115      0.0133      0.0000      0.0003      0.0054
         6         0.0133     -0.0115      0.0000      0.0003      0.0054
         7         0.0000      0.0000      0.1959      0.0384      0.3583
         8         0.0000      0.0000      0.0000      0.0000      0.0000
         9         0.0000      0.0000      0.0000      0.0000      0.0000
        10         0.0000      0.0000      0.0000      0.0000      0.0000
        11         0.0000      0.0000      0.0000      0.0000      0.0000
        12         0.0000      0.0000      0.0000      0.0000      0.0000
 Ground to excited state transition magnetic dipole moments (Au):
       state          X           Y           Z
         1         0.0000      0.0000      0.0000
         2         0.0000      0.0000      0.0000
         3        -0.0002     -0.0004      0.0000
         4         0.0000      0.0000      0.0000
         5         0.0000      0.0000      0.0000
         6         0.0000      0.0000      0.0000
         7         0.0000      0.0000      0.0000
         8        -1.1728      0.5706      0.0000
         9         0.0000      0.0000      0.0000
        10         0.0000      0.0000      0.0000
        11         0.0000      0.0000      0.0000
        12         0.0000      0.0000      0.0000
 Ground to excited state transition velocity quadrupole moments (Au):
       state          XX          YY          ZZ          XY          XZ          YZ
         1         0.0000      0.0000      0.0000      0.0000      0.0000      0.0000
         2         0.0000      0.0000      0.0000      0.0000      0.0000      0.0000
         3         0.0000      0.0000      0.0000      0.0000      0.0000      0.0000
         4         0.0000      0.0000      0.0000      0.0000      0.0000      0.0000
         5         0.0000      0.0000      0.0000      0.0000      0.0000      0.0000
         6         0.0000      0.0000      0.0000      0.0000      0.0000      0.0000
         7         0.0000      0.0000      0.0000      0.0000      0.0000      0.0000
         8         0.0000      0.0000      0.0000      0.0000      0.0345      0.0709
         9         0.0000      0.0000      0.0000      0.0000      0.0000      0.0000
        10         0.2184     -0.2184      0.0000      0.1910      0.0000      0.0000
        11        -0.1910      0.1910      0.0000      0.2184      0.0000      0.0000
        12         0.0000      0.0000      0.0000      0.0000      0.0000      0.0000
 <0|del|b> * <b|rxdel|0> + <0|del|b> * <b|delr+rdel|0>
 Rotatory Strengths (R) in cgs (10**-40 erg-esu-cm/Gauss)
       state          XX          YY          ZZ    R(velocity)    E-M Angle
         1         0.0000      0.0000      0.0000      0.0000       90.00
         2         0.0000      0.0000      0.0000      0.0000       90.00
         3         0.2042      0.0751      0.3576      0.2123       90.00
         4        -0.0001     -0.0003     -0.0002     -0.0002       90.00
         5         0.0001      0.0000      0.0001      0.0001       90.00
         6         0.0000     -0.0001     -0.0001     -0.0001       90.00
         7         0.0000      0.0000      0.0000      0.0000       90.00
         8         0.0000     -0.0001     -0.0001     -0.0001       90.00
         9         0.0000      0.0000      0.0000      0.0000       90.00
        10         0.0000      0.0000      0.0000      0.0000       90.00
        11         0.0000      0.0000      0.0000      0.0000       90.00
        12         0.0000      0.0000      0.0000      0.0000       90.00
 1/2[<0|r|b>*<b|rxdel|0> + (<0|rxdel|b>*<b|r|0>)*]
 Rotatory Strengths (R) in cgs (10**-40 erg-esu-cm/Gauss)
       state          XX          YY          ZZ     R(length)
         1         0.0000      0.0000      0.0000      0.0000
         2         0.0000      0.0000      0.0000      0.0000
         3        -0.1281     -0.3480      0.0000     -0.1587
         4         0.0003      0.0001      0.0000      0.0001
         5         0.0000      0.0004      0.0000      0.0002
         6        -0.0004     -0.0001      0.0000     -0.0002
         7         0.0000      0.0000      0.0000      0.0000
         8        -0.0001      0.0000      0.0000      0.0000
         9         0.0000      0.0000      0.0000      0.0000
        10         0.0000      0.0000      0.0000      0.0000
        11         0.0000      0.0000      0.0000      0.0000
        12         0.0000      0.0000      0.0000      0.0000
  1/2[<0|del|b>*<b|r|0> + (<0|r|b>*<b|del|0>)*] (Au)
       state          X           Y           Z        Dip. S.   Osc.(frdel)
         1         0.0000      0.0000      0.0000      0.0000      0.0000
         2         0.0000      0.0000      0.0000      0.0000      0.0000
         3        -0.0365     -0.0637      0.0000      0.1002      0.0668
         4        -0.0637     -0.0365      0.0000      0.1002      0.0668
         5        -0.0094     -0.0125      0.0000      0.0220      0.0146
         6        -0.0125     -0.0094      0.0000      0.0220      0.0146
         7         0.0000      0.0000     -0.5569      0.5569      0.3712
         8         0.0000      0.0000      0.0000      0.0000      0.0000
         9         0.0000      0.0000      0.0000      0.0000      0.0000
        10         0.0000      0.0000      0.0000      0.0000      0.0000
        11         0.0000      0.0000      0.0000      0.0000      0.0000
        12         0.0000      0.0000      0.0000      0.0000      0.0000

 Excitation energies and oscillator strengths:
 
 Excited state symmetry could not be determined.
 Excited State   1:  5.007-?Sym    -3.0551 eV    -405.83 nm  f=-0.0000  <S**2>=6.018
     21A -> 23A        0.72540
     21A -> 24A        0.12016
     22A -> 23A       -0.12016
     22A -> 24A        0.72540
     21A <- 23A       -0.21125
     22A <- 24A       -0.21125
 This state for optimization and/or second-order correction.
 Total Energy, E(TD-HF/TD-KS) =  -1299.56306563    
 Copying the excited state density for this state as the 1-particle RhoCI density.
 
 Excited state symmetry could not be determined.
 Excited State   2:  5.007-?Sym    -3.0551 eV    -405.83 nm  f=-0.0000  <S**2>=6.018
     21A -> 23A        0.12016
     21A -> 24A       -0.72540
     22A -> 23A        0.72540
     22A -> 24A        0.12016
     21A <- 24A        0.21125
     22A <- 23A       -0.21125
 
 Excited state symmetry could not be determined.
 Excited State   3:  5.021-?Sym    -0.7656 eV    -1619.40 nm  f=-0.0499  <S**2>=6.052
     16A -> 26A        0.12796
     16A -> 31A        0.13262
     19A -> 23A        1.13264
     19A -> 35A       -0.25006
     20A -> 26A       -0.27238
     20A -> 27A       -0.17966
     20A -> 30A       -0.13445
     20A -> 31A       -0.21994
     21A -> 25A        0.19882
     21A -> 29A        0.10043
     22A -> 25A        0.31017
     22A -> 29A        0.15667
     21A <- 25A        0.37836
     21A <- 29A        0.27290
     22A <- 25A        0.59024
     22A <- 29A        0.42573
 
 Excited state symmetry could not be determined.
 Excited State   4:  5.021-?Sym    -0.7656 eV    -1619.40 nm  f=-0.0499  <S**2>=6.052
     16A -> 27A        0.12796
     16A -> 30A        0.13262
     19A -> 24A        1.13264
     19A -> 34A       -0.25006
     20A -> 26A        0.17966
     20A -> 27A       -0.27238
     20A -> 30A       -0.21994
     20A -> 31A        0.13445
     21A -> 25A        0.31017
     21A -> 29A        0.15667
     22A -> 25A       -0.19882
     22A -> 29A       -0.10043
     21A <- 25A        0.59024
     21A <- 29A        0.42573
     22A <- 25A       -0.37836
     22A <- 29A       -0.27290
 
 Excited state symmetry could not be determined.
 Excited State   5:  5.442-?Sym    1.0361 eV 1196.67 nm  f=0.0398  <S**2>=7.155
     19A -> 23A       -0.49334
     19A -> 35A        0.10465
     20A -> 26A        0.10055
     21A -> 25A        0.65948
     21A -> 29A        0.35794
     22A -> 25A        0.89389
     22A -> 29A        0.48516
     16A <- 31A        0.10173
     19A <- 23A        0.82758
     19A <- 35A       -0.18966
     20A <- 26A       -0.18642
     20A <- 27A       -0.14133
     20A <- 30A       -0.10175
     20A <- 31A       -0.14427
     21A <- 25A       -0.10157
     22A <- 25A       -0.13768
     22A <- 29A       -0.11372
 
 Excited state symmetry could not be determined.
 Excited State   6:  5.442-?Sym    1.0361 eV 1196.67 nm  f=0.0398  <S**2>=7.155
     19A -> 24A       -0.49334
     19A -> 34A        0.10465
     20A -> 27A        0.10055
     21A -> 25A        0.89389
     21A -> 29A        0.48516
     22A -> 25A       -0.65948
     22A -> 29A       -0.35794
     16A <- 30A        0.10173
     19A <- 24A        0.82758
     19A <- 34A       -0.18966
     20A <- 26A        0.14133
     20A <- 27A       -0.18642
     20A <- 30A       -0.14427
     20A <- 31A        0.10175
     21A <- 25A       -0.13768
     21A <- 29A       -0.11372
     22A <- 25A        0.10157
 
 Excited state symmetry could not be determined.
 Excited State   7:  5.010-?Sym    1.9431 eV  638.09 nm  f=0.3847  <S**2>=6.026
     19A -> 25A       -0.14630
     19A -> 29A       -0.13518
     21A -> 23A        0.36019
     21A -> 24A        0.59882
     22A -> 23A        0.59882
     22A -> 24A       -0.36019
     19A <- 29A       -0.10112
 
 Excited state symmetry could not be determined.
 Excited State   8:  5.077-?Sym    2.0721 eV  598.35 nm  f=0.0000  <S**2>=6.195
     16A -> 23A       -0.22804
     19A -> 26A       -0.29813
     19A -> 27A       -0.12178
     19A -> 31A       -0.24820
     20A -> 23A        0.84836
     20A -> 24A       -0.14283
     20A -> 35A       -0.14056
 
 Excited state symmetry could not be determined.
 Excited State   9:  5.020-?Sym    3.0156 eV  411.15 nm  f=0.0000  <S**2>=6.051
     21A -> 23A       -0.62884
     21A -> 24A        0.37826
     22A -> 23A        0.37826
     22A -> 24A        0.62884
     21A <- 23A       -0.17177
     21A <- 24A        0.10332
     22A <- 23A        0.10332
     22A <- 24A        0.17177
 
 Excited state symmetry could not be determined.
 Excited State  10:  5.238-?Sym    3.6833 eV  336.61 nm  f=0.0000  <S**2>=6.610
     21A -> 26A        0.47276
     21A -> 27A        0.40573
     21A -> 30A        0.21027
     21A -> 31A        0.26278
     22A -> 26A       -0.40573
     22A -> 27A        0.47276
     22A -> 30A        0.26278
     22A -> 31A       -0.21027
 
 Excited state symmetry could not be determined.
 Excited State  11:  5.238-?Sym    3.6833 eV  336.61 nm  f=0.0000  <S**2>=6.610
     21A -> 26A        0.40573
     21A -> 27A       -0.47276
     21A -> 30A       -0.26278
     21A -> 31A        0.21027
     22A -> 26A        0.47276
     22A -> 27A        0.40573
     22A -> 30A        0.21027
     22A -> 31A        0.26278
 
 Excited state symmetry could not be determined.
 Excited State  12:  5.236-?Sym    3.8722 eV  320.19 nm  f=0.0000  <S**2>=6.604
     17A -> 23A        0.10401
     18A -> 24A       -0.10401
     21A -> 26A       -0.62550
     21A -> 31A       -0.33063
     22A -> 27A        0.62550
     22A -> 30A        0.33063
 SavETr:  write IOETrn=   770 NScale= 10 NData=  16 NLR=1 NState=   12 LETran=     226.
 Leave Link  914 at Wed Oct 28 10:11:59 2015, MaxMem=    33554432 cpu:               6.5 elap:               6.5
 (Enter /home/gauss/gdvi03p/gdv/l601.exe)
 Copying SCF densities to generalized density rwf, IOpCl= 1 IROHF=0.

 **********************************************************************

            Population analysis using the SCF density.

 **********************************************************************

 Alpha  occ. eigenvalues -- -240.60980 -29.25791 -24.96286 -24.96286 -24.95665
 Alpha  occ. eigenvalues --  -20.62622 -20.62621  -4.08178  -2.78712  -2.78712
 Alpha  occ. eigenvalues --   -2.78496  -1.16925  -1.14115  -0.70409  -0.70409
 Alpha  occ. eigenvalues --   -0.70039  -0.68501  -0.68501  -0.51773  -0.50317
 Alpha  occ. eigenvalues --   -0.26855  -0.26855
 Alpha virt. eigenvalues --   -0.03606  -0.03606   0.02016   0.09147   0.09147
 Alpha virt. eigenvalues --    0.11000   0.18904   0.20707   0.20707   0.22170
 Alpha virt. eigenvalues --    0.22170   0.35160   0.35160   0.36831   0.39709
 Alpha virt. eigenvalues --    0.74396   0.74396   0.82697   0.88445   1.31257
 Alpha virt. eigenvalues --    1.31257   1.31662   1.32276   1.32276   1.33488
 Alpha virt. eigenvalues --    1.33488   1.36631   1.49560   1.49560   1.72250
 Alpha virt. eigenvalues --    2.07103   2.30575   2.52003   2.52003   2.64709
 Alpha virt. eigenvalues --    2.66093   2.66093   2.67728   2.67728   2.98787
 Alpha virt. eigenvalues --    2.98787   3.00574   3.00574   3.09071   3.09071
 Alpha virt. eigenvalues --    3.30646   3.30646   3.67616   4.01922
  Beta  occ. eigenvalues -- -240.60469 -29.12692 -24.83398 -24.82977 -24.82977
  Beta  occ. eigenvalues --  -20.69217 -20.69217  -3.68809  -2.32145  -2.30810
  Beta  occ. eigenvalues --   -2.30810  -1.40057  -1.38729  -0.66269  -0.66269
  Beta  occ. eigenvalues --   -0.65768  -0.65768  -0.64967  -0.60950
  Beta virt. eigenvalues --    0.02240   0.06891   0.06891   0.11130   0.15713
  Beta virt. eigenvalues --    0.17272   0.17272   0.23043   0.23043   0.24513
  Beta virt. eigenvalues --    0.24513   0.35266   0.35266   0.35873   0.35873
  Beta virt. eigenvalues --    0.38306   0.39244   0.39727   0.81977   0.81977
  Beta virt. eigenvalues --    0.90957   0.93714   1.18520   1.18520   1.27092
  Beta virt. eigenvalues --    1.32931   1.34427   1.34427   1.54063   1.54063
  Beta virt. eigenvalues --    1.56315   1.56315   1.83828   2.01763   2.28158
  Beta virt. eigenvalues --    2.58172   2.58172   2.70977   2.75920   2.75920
  Beta virt. eigenvalues --    2.81813   2.81813   2.92441   2.92441   2.97536
  Beta virt. eigenvalues --    2.97536   3.00282   3.00282   3.36745   3.36745
  Beta virt. eigenvalues --    3.64976   4.09993
          Condensed to atoms (all electrons):
               1          2          3
     1  Mn  23.821130   0.302956   0.302956
     2  O    0.302956   7.984033  -0.000510
     3  O    0.302956  -0.000510   7.984033
          Atomic-Atomic Spin Densities.
               1          2          3
     1  Mn   5.616204   0.158018   0.158018
     2  O    0.158018  -1.624254   0.000116
     3  O    0.158018   0.000116  -1.624254
 Mulliken charges and spin densities:
               1          2
     1  Mn   0.572958   5.932240
     2  O   -0.286479  -1.466120
     3  O   -0.286479  -1.466120
 Sum of Mulliken charges =   0.00000   3.00000
 Mulliken charges and spin densities with hydrogens summed into heavy atoms:
               1          2
     1  Mn   0.572958   5.932240
     2  O   -0.286479  -1.466120
     3  O   -0.286479  -1.466120
 Electronic spatial extent (au):  <R**2>=            259.8779
 Charge=              0.0000 electrons
 Dipole moment (field-independent basis, Debye):
    X=              0.0000    Y=              0.0000    Z=              0.0000  Tot=              0.0000
 Quadrupole moment (field-independent basis, Debye-Ang):
   XX=            -26.3434   YY=            -26.3434   ZZ=            -36.5209
   XY=              0.0000   XZ=              0.0000   YZ=              0.0000
 Traceless Quadrupole moment (field-independent basis, Debye-Ang):
   XX=              3.3925   YY=              3.3925   ZZ=             -6.7850
   XY=              0.0000   XZ=              0.0000   YZ=              0.0000
 Octapole moment (field-independent basis, Debye-Ang**2):
  XXX=              0.0000  YYY=              0.0000  ZZZ=              0.0000  XYY=              0.0000
  XXY=              0.0000  XXZ=              0.0000  XZZ=              0.0000  YZZ=              0.0000
  YYZ=              0.0000  XYZ=              0.0000
 Hexadecapole moment (field-independent basis, Debye-Ang**3):
 XXXX=            -43.4953 YYYY=            -43.4953 ZZZZ=           -303.7000 XXXY=              0.0000
 XXXZ=              0.0000 YYYX=              0.0000 YYYZ=              0.0000 ZZZX=              0.0000
 ZZZY=              0.0000 XXYY=            -14.4984 XXZZ=            -49.4396 YYZZ=            -49.4396
 XXYZ=              0.0000 YYXZ=              0.0000 ZZXY=              0.0000
 N-N= 1.242059643306D+02 E-N=-3.337864519828D+03  KE= 1.299264443554D+03
 Leave Link  601 at Wed Oct 28 10:11:59 2015, MaxMem=    33554432 cpu:               0.0 elap:               0.0
 (Enter /home/gauss/gdvi03p/gdv/l9999.exe)
 Unable to Open any file for archive entry.
 1\1\GINC-MEDUSA\SP\UTD-Full\CC-pVDZ\Mn1O2(4)\PLESTRAN\28-Oct-2015\0\\#
 p uhf/cc-pVDZ nosymm td(full,nstates=12)\\MnO2 cc-pVDZ\\0,4\Mn,0,0.,0.
 ,0.\O,0,0.,0.,1.840528\O,0,0.,0.,-1.840528\\Version=ES64L-GDVRevI.03+\
 HF=-1299.4507932\MP2=-1300.1322264\PUHF=-1299.508068\PMP2-0=-1300.1885
 497\EFC=0.\S2=6.17179\S2-1=5.98555\S2A=7.709619\RMSD=1.126e-09\PG=D*H 
 [O(Mn1),C*(O1.O1)]\\@
 The archive entry for this job was punched.


 FIREWORKS ENDED
 AND SPECTATORS GONE AWAY....
 AH, HOW VAST AND DARK
                     SHIKI
 Job cpu time:       0 days  0 hours  0 minutes 35.7 seconds.
 Elapsed time:       0 days  0 hours  0 minutes 35.5 seconds.
 File lengths (MBytes):  RWF=    168 Int=      0 D2E=      0 Chk=      4 Scr=      1
 Normal termination of Gaussian DV at Wed Oct 28 10:11:59 2015.
