 Entering Gaussian System, Link 0=gdv
 Input=MnO2_3-21G_TD.com
 Output=MnO2_3-21G_TD.log
 Initial command:
 /home/gauss/gdvi01p/gdv/l1.exe "/home/GauScr/Gau-22283.inp" -scrdir="/home/GauScr/"
 Entering Link 1 = /home/gauss/gdvi01p/gdv/l1.exe PID=     22284.
  
 Copyright (c) 1988,1990,1992,1993,1995,1998,2003,2009,2014,
            Gaussian, Inc.  All Rights Reserved.
  
 This is the private, development version of
 the Gaussian(R) DV system of programs. It is based on
 the Gaussian(R) 09 system (copyright 2009, Gaussian, Inc.),
 the Gaussian(R) 03 system (copyright 2003, Gaussian, Inc.),
 the Gaussian(R) 98 system (copyright 1998, Gaussian, Inc.),
 the Gaussian(R) 94 system (copyright 1995, Gaussian, Inc.),
 the Gaussian 92(TM) system (copyright 1992, Gaussian, Inc.),
 the Gaussian 90(TM) system (copyright 1990, Gaussian, Inc.),
 the Gaussian 88(TM) system (copyright 1988, Gaussian, Inc.),
 the Gaussian 86(TM) system (copyright 1986, Carnegie Mellon
 University), and the Gaussian 82(TM) system (copyright 1983,
 Carnegie Mellon University). Gaussian is a federally registered
 trademark of Gaussian, Inc.
  
 This software contains proprietary and confidential information,
 including trade secrets, belonging to Gaussian, Inc.
  
 This software is provided under written license and may be
 used, copied, transmitted, or stored only in accord with that
 written license.
  
 The following legend is applicable only to US Government
 contracts under FAR:
  
                    RESTRICTED RIGHTS LEGEND
  
 Use, reproduction and disclosure by the US Government is
 subject to restrictions as set forth in subparagraphs (a)
 and (c) of the Commercial Computer Software - Restricted
 Rights clause in FAR 52.227-19.
  
 Gaussian, Inc.
 340 Quinnipiac St., Bldg. 40, Wallingford CT 06492
  
  
 ---------------------------------------------------------------
 Warning -- This program may not be used in any manner that
 competes with the business of Gaussian, Inc. or will provide
 assistance to any competitor of Gaussian, Inc.  The licensee
 of this program is prohibited from giving any competitor of
 Gaussian, Inc. access to this program.  By using this program,
 the user acknowledges that Gaussian, Inc. is engaged in the
 business of creating and licensing software in the field of
 computational chemistry and represents and warrants to the
 licensee that it is not a competitor of Gaussian, Inc. and that
 it will not use this program in any manner prohibited above.
 ---------------------------------------------------------------
  

 Cite this work as:
 Gaussian Development Version, Revision I.01+,
 M. J. Frisch, G. W. Trucks, H. B. Schlegel, G. E. Scuseria, 
 M. A. Robb, J. R. Cheeseman, G. Scalmani, V. Barone, B. Mennucci, 
 G. A. Petersson, H. Nakatsuji, M. Caricato, X. Li, H. P. Hratchian, 
 A. F. Izmaylov, J. Bloino, B. G. Janesko, F. Lipparini, G. Zheng, 
 J. L. Sonnenberg, W. Liang, M. Hada, M. Ehara, K. Toyota, R. Fukuda, 
 J. Hasegawa, M. Ishida, T. Nakajima, Y. Honda, O. Kitao, H. Nakai, 
 T. Vreven, J. A. Montgomery, Jr., J. E. Peralta, F. Ogliaro, 
 M. Bearpark, J. J. Heyd, E. Brothers, K. N. Kudin, V. N. Staroverov, 
 T. Keith, R. Kobayashi, J. Normand, K. Raghavachari, A. Rendell, 
 J. C. Burant, S. S. Iyengar, J. Tomasi, M. Cossi, N. Rega, 
 J. M. Millam, M. Klene, J. E. Knox, J. B. Cross, V. Bakken, 
 C. Adamo, J. Jaramillo, R. Gomperts, R. E. Stratmann, O. Yazyev, 
 A. J. Austin, R. Cammi, C. Pomelli, J. W. Ochterski, R. L. Martin, 
 K. Morokuma, V. G. Zakrzewski, G. A. Voth, P. Salvador, 
 J. J. Dannenberg, S. Dapprich, P. V. Parandekar, N. J. Mayhall, 
 A. D. Daniels, O. Farkas, J. B. Foresman, J. V. Ortiz, 
 J. Cioslowski, and D. J. Fox, Gaussian, Inc., Wallingford CT, 2010.
 
 *******************************************
 Gaussian DV:  ES64L-GDVRevI.01+ 11-Sep-2014
                 22-Sep-2015 
 *******************************************
 ---------------------------------------------
 #p uhf/3-21G nosymm td(full,nstates=12,50-50)
 ---------------------------------------------
 1/38=1,172=1/1;
 2/12=2,15=1,17=6,18=5,40=1/2;
 3/5=5,11=2,25=1,30=1,116=2/1,2,8,3;
 4//1;
 5/5=2,38=5/2;
 8/6=1,10=90,108=12/1,4;
 9/41=12,42=3,48=2,70=2/14;
 6/7=2,8=2,9=2,10=2/1;
 99/5=1,9=1/99;
 Leave Link    1 at Tue Sep 22 15:17:27 2015, MaxMem=           0 cpu:               0.0 elap:               0.0
 (Enter /home/gauss/gdvi01p/gdv/l101.exe)
 ----------
 MnO2 3-21G
 ----------
 Symbolic Z-matrix:
 Charge =  0 Multiplicity = 4
 Mn                    0.        0.        0. 
 O                     0.        0.        1.84053 
 O                     0.        0.       -1.84053 
 
 ITRead=  0  0  0
 MicOpt= -1 -1 -1
 NAtoms=      3 NQM=        3 NQMF=       0 NMMI=      0 NMMIF=      0
                NMic=       0 NMicF=      0.
                    Isotopes and Nuclear Properties:
 (Nuclear quadrupole moments (NQMom) in fm**2, nuclear magnetic moments (NMagM)
  in nuclear magnetons)

  Atom         1           2           3
 IAtWgt=          55          16          16
 AtmWgt=  54.9380463  15.9949146  15.9949146
 NucSpn=           5           0           0
 AtZEff=   0.0000000   0.0000000   0.0000000
 NQMom=   33.0000000   0.0000000   0.0000000
 NMagM=    3.4532000   0.0000000   0.0000000
 AtZNuc=  25.0000000   8.0000000   8.0000000
 Leave Link  101 at Tue Sep 22 15:17:27 2015, MaxMem=    33554432 cpu:               0.1 elap:               0.1
 (Enter /home/gauss/gdvi01p/gdv/l202.exe)
                          Input orientation:                          
 ---------------------------------------------------------------------
 Center     Atomic      Atomic             Coordinates (Angstroms)
 Number     Number       Type             X           Y           Z
 ---------------------------------------------------------------------
      1         25           0        0.000000    0.000000    0.000000
      2          8           0        0.000000    0.000000    1.840528
      3          8           0        0.000000    0.000000   -1.840528
 ---------------------------------------------------------------------
                    Distance matrix (angstroms):
                    1          2          3
     1  Mn   0.000000
     2  O    1.840528   0.000000
     3  O    1.840528   3.681056   0.000000
 Symmetry turned off by external request.
 Stoichiometry    MnO2(4)
 Framework group  D*H[O(Mn),C*(O.O)]
 Deg. of freedom     1
 Full point group                 D*H     NOp   8
 Rotational constants (GHZ):      0.0000000      4.6635906      4.6635906
 Leave Link  202 at Tue Sep 22 15:17:27 2015, MaxMem=    33554432 cpu:               0.0 elap:               0.0
 (Enter /home/gauss/gdvi01p/gdv/l301.exe)
 Standard basis: 3-21G (6D, 7F)
 Ernie: Thresh=  0.10000D-02 Tol=  0.10000D-05 Strict=F.
    47 basis functions,    87 primitive gaussians,    47 cartesian basis functions
    22 alpha electrons       19 beta electrons
       nuclear repulsion energy       124.2059643306 Hartrees.
 IExCor=    0 DFT=F Ex=HF Corr=None ExCW=0 ScaHFX=  1.000000
 ScaDFX=  1.000000  1.000000  1.000000  1.000000 ScalE2=  1.000000  1.000000
 IRadAn=      0 IRanWt=     -1 IRanGd=            0 ICorTp=0 IEmpDi=  4
 NAtoms=    3 NActive=    3 NUniq=    3 SFac= 1.00D+00 NAtFMM=   60 NAOKFM=F Big=F
 Integral buffers will be    131072 words long.
 Raffenetti 2 integral format.
 Two-electron integral symmetry is turned off.
 Leave Link  301 at Tue Sep 22 15:17:27 2015, MaxMem=    33554432 cpu:               0.0 elap:               0.1
 (Enter /home/gauss/gdvi01p/gdv/l302.exe)
 NPDir=0 NMtPBC=     1 NCelOv=     1 NCel=       1 NClECP=     1 NCelD=      1
         NCelK=      1 NCelE2=     1 NClLst=     1 CellRange=     0.0.
 One-electron integrals computed using PRISM.
 One-electron integral symmetry used in STVInt
 NBasis=    47 RedAO= T EigKep=  4.42D-03  NBF=    47
 NBsUse=    47 1.00D-06 EigRej= -1.00D+00 NBFU=    47
 Leave Link  302 at Tue Sep 22 15:17:27 2015, MaxMem=    33554432 cpu:               0.1 elap:               0.1
 (Enter /home/gauss/gdvi01p/gdv/l308.exe)
 Leave Link  308 at Tue Sep 22 15:17:27 2015, MaxMem=    33554432 cpu:               0.0 elap:               0.0
 (Enter /home/gauss/gdvi01p/gdv/l303.exe)
 DipDrv:  MaxL=1.
 Leave Link  303 at Tue Sep 22 15:17:27 2015, MaxMem=    33554432 cpu:               0.0 elap:               0.0
 (Enter /home/gauss/gdvi01p/gdv/l401.exe)
 ExpMin= 3.33D-02 ExpMax= 3.04D+03 ExpMxC= 3.04D+03 IAcc=3 IRadAn=         5 AccDes= 0.00D+00
 Harris functional with IExCor=  205 and IRadAn=       5 diagonalized for initial guess.
 HarFok:  IExCor=  205 AccDes= 0.00D+00 IRadAn=         5 IDoV= 1 UseB2=F ITyADJ=14
 ICtDFT=  3500011 ScaDFX=  1.000000  1.000000  1.000000  1.000000
 FoFCou: FMM=F IPFlag=           0 FMFlag=      100000 FMFlg1=           0
         NFxFlg=           0 DoJE=T BraDBF=F KetDBF=T FulRan=T
         wScrn=  0.000000 ICntrl=       500 IOpCl=  0 I1Cent=   200000004 NGrid=           0
         NMat0=    1 NMatS0=      1 NMatT0=    0 NMatD0=    1 NMtDS0=    0 NMtDT0=    0
 Symmetry not used in FoFCou.
 Harris En= -1292.63885149669    
 JPrj=0 DoOrth=F DoCkMO=F.
 Initial guess <Sx>= 0.0000 <Sy>= 0.0000 <Sz>= 1.5000 <S**2>= 3.7500 S= 1.5000
 Leave Link  401 at Tue Sep 22 15:17:28 2015, MaxMem=    33554432 cpu:               0.3 elap:               0.3
 (Enter /home/gauss/gdvi01p/gdv/l502.exe)
 Keep R1 and R2 ints in memory in canonical form, NReq=2101006.
 FoFCou: FMM=F IPFlag=           0 FMFlag=           0 FMFlg1=           0
         NFxFlg=           0 DoJE=F BraDBF=F KetDBF=F FulRan=T
         wScrn=  0.000000 ICntrl=       600 IOpCl=  0 I1Cent=           0 NGrid=           0
         NMat0=    1 NMatS0=   1128 NMatT0=    0 NMatD0=    1 NMtDS0=    0 NMtDT0=    0
 Symmetry not used in FoFCou.
 Two-electron integral symmetry not used.
 UHF open shell SCF:
 Using DIIS extrapolation, IDIIS=  1040.
 NGot=    33554432 LenX=    32275732 LenY=    32273082
 Requested convergence on RMS density matrix=1.00D-08 within 128 cycles.
 Requested convergence on MAX density matrix=1.00D-06.
 Requested convergence on             energy=1.00D-06.
 No special actions if energy rises.

 Cycle   1  Pass 1  IDiag  1:
 E= -1291.47226822033    
 DIIS: error= 2.17D-01 at cycle   1 NSaved=   1.
 NSaved= 1 IEnMin= 1 EnMin= -1291.47226822033     IErMin= 1 ErrMin= 2.17D-01
 ErrMax= 2.17D-01  0.00D+00 EMaxC= 1.00D-01 BMatC= 6.63D+00 BMatP= 6.63D+00
 IDIUse=3 WtCom= 0.00D+00 WtEn= 1.00D+00
 Coeff-Com:  0.100D+01
 Coeff-En:   0.100D+01
 Coeff:      0.100D+01
 Gap=     0.884 Goal=   None    Shift=    0.000
 Gap=    -0.312 Goal=   None    Shift=    0.000
 GapD=   -0.312 DampG=0.250 DampE=0.125 DampFc=0.1250 IDamp=-1.
 Damping current iteration by 1.25D-01
 RMSDP=5.18D-02 MaxDP=7.21D-01              OVMax= 9.96D-01

 Cycle   2  Pass 1  IDiag  1:
 E= -1291.89778191176     Delta-E=       -0.425513691430 Rises=F Damp=T
 DIIS: error= 9.58D-02 at cycle   2 NSaved=   2.
 NSaved= 2 IEnMin= 2 EnMin= -1291.89778191176     IErMin= 2 ErrMin= 9.58D-02
 ErrMax= 9.58D-02  0.00D+00 EMaxC= 1.00D-01 BMatC= 2.16D+00 BMatP= 6.63D+00
 IDIUse=3 WtCom= 4.23D-02 WtEn= 9.58D-01
 Coeff-Com: -0.996D+00 0.200D+01
 Coeff-En:   0.000D+00 0.100D+01
 Coeff:     -0.421D-01 0.104D+01
 Gap=     0.132 Goal=   None    Shift=    0.000
 Gap=     0.009 Goal=   None    Shift=    0.000
 RMSDP=3.18D-02 MaxDP=3.21D-01 DE=-4.26D-01 OVMax= 9.92D-01

 Cycle   3  Pass 1  IDiag  1:
 E= -1286.86581582724     Delta-E=        5.031966084515 Rises=F Damp=F
 DIIS: error= 5.66D-01 at cycle   3 NSaved=   3.
 NSaved= 3 IEnMin= 2 EnMin= -1291.89778191176     IErMin= 2 ErrMin= 9.58D-02
 ErrMax= 5.66D-01  0.00D+00 EMaxC= 1.00D-01 BMatC= 3.34D+01 BMatP= 2.16D+00
 IDIUse=2 WtCom= 0.00D+00 WtEn= 1.00D+00
 EnCoef did   100 forward-backward iterations
 Coeff-En:   0.711D+00 0.390D-01 0.250D+00
 Coeff:      0.711D+00 0.390D-01 0.250D+00
 Gap=     0.202 Goal=   None    Shift=    0.000
 Gap=     0.095 Goal=   None    Shift=    0.000
 RMSDP=2.70D-02 MaxDP=3.58D-01 DE= 5.03D+00 OVMax= 9.99D-01

 Cycle   4  Pass 1  IDiag  1:
 E= -1292.68971343962     Delta-E=       -5.823897612375 Rises=F Damp=F
 DIIS: error= 7.49D-02 at cycle   4 NSaved=   4.
 NSaved= 4 IEnMin= 4 EnMin= -1292.68971343962     IErMin= 4 ErrMin= 7.49D-02
 ErrMax= 7.49D-02  0.00D+00 EMaxC= 1.00D-01 BMatC= 4.45D-01 BMatP= 2.16D+00
 IDIUse=3 WtCom= 2.51D-01 WtEn= 7.49D-01
 Coeff-Com:  0.608D-01 0.969D-01-0.473D-01 0.890D+00
 Coeff-En:   0.171D-02 0.000D+00 0.000D+00 0.998D+00
 Coeff:      0.165D-01 0.243D-01-0.119D-01 0.971D+00
 Gap=     0.400 Goal=   None    Shift=    0.000
 Gap=     0.724 Goal=   None    Shift=    0.000
 RMSDP=8.61D-03 MaxDP=1.18D-01 DE=-5.82D+00 OVMax= 2.35D-01

 Cycle   5  Pass 1  IDiag  1:
 E= -1292.62323002981     Delta-E=        0.066483409810 Rises=F Damp=F
 DIIS: error= 1.13D-01 at cycle   5 NSaved=   5.
 NSaved= 5 IEnMin= 4 EnMin= -1292.68971343962     IErMin= 4 ErrMin= 7.49D-02
 ErrMax= 1.13D-01  0.00D+00 EMaxC= 1.00D-01 BMatC= 8.90D-01 BMatP= 4.45D-01
 IDIUse=2 WtCom= 0.00D+00 WtEn= 1.00D+00
 Coeff-En:   0.000D+00 0.000D+00 0.000D+00 0.616D+00 0.384D+00
 Coeff:      0.000D+00 0.000D+00 0.000D+00 0.616D+00 0.384D+00
 Gap=     0.304 Goal=   None    Shift=    0.000
 Gap=     0.400 Goal=   None    Shift=    0.000
 RMSDP=5.25D-03 MaxDP=5.89D-02 DE= 6.65D-02 OVMax= 1.70D-01

 Cycle   6  Pass 1  IDiag  1:
 E= -1292.80125059189     Delta-E=       -0.178020562081 Rises=F Damp=F
 DIIS: error= 2.26D-02 at cycle   6 NSaved=   6.
 NSaved= 6 IEnMin= 6 EnMin= -1292.80125059189     IErMin= 6 ErrMin= 2.26D-02
 ErrMax= 2.26D-02  0.00D+00 EMaxC= 1.00D-01 BMatC= 2.59D-02 BMatP= 4.45D-01
 IDIUse=3 WtCom= 7.74D-01 WtEn= 2.26D-01
 Coeff-Com: -0.246D+00 0.300D+00-0.113D-01 0.300D+00 0.387D+00 0.270D+00
 Coeff-En:   0.000D+00 0.000D+00 0.000D+00 0.000D+00 0.000D+00 0.100D+01
 Coeff:     -0.190D+00 0.232D+00-0.876D-02 0.233D+00 0.300D+00 0.435D+00
 Gap=     0.312 Goal=   None    Shift=    0.000
 Gap=     0.397 Goal=   None    Shift=    0.000
 RMSDP=1.76D-03 MaxDP=2.12D-02 DE=-1.78D-01 OVMax= 6.76D-02

 Cycle   7  Pass 1  IDiag  1:
 E= -1292.81889470249     Delta-E=       -0.017644110606 Rises=F Damp=F
 DIIS: error= 4.50D-02 at cycle   7 NSaved=   7.
 NSaved= 7 IEnMin= 7 EnMin= -1292.81889470249     IErMin= 6 ErrMin= 2.26D-02
 ErrMax= 4.50D-02  0.00D+00 EMaxC= 1.00D-01 BMatC= 5.13D-02 BMatP= 2.59D-02
 IDIUse=2 WtCom= 0.00D+00 WtEn= 1.00D+00
 Coeff-En:   0.000D+00 0.000D+00 0.000D+00 0.000D+00 0.000D+00 0.000D+00
 Coeff-En:   0.100D+01
 Coeff:      0.000D+00 0.000D+00 0.000D+00 0.000D+00 0.000D+00 0.000D+00
 Coeff:      0.100D+01
 Gap=     0.246 Goal=   None    Shift=    0.000
 Gap=     0.409 Goal=   None    Shift=    0.000
 RMSDP=4.78D-03 MaxDP=7.38D-02 DE=-1.76D-02 OVMax= 2.00D-01

 Cycle   8  Pass 1  IDiag  1:
 E= -1292.87082915903     Delta-E=       -0.051934456537 Rises=F Damp=F
 DIIS: error= 6.96D-02 at cycle   8 NSaved=   8.
 NSaved= 8 IEnMin= 8 EnMin= -1292.87082915903     IErMin= 6 ErrMin= 2.26D-02
 ErrMax= 6.96D-02  0.00D+00 EMaxC= 1.00D-01 BMatC= 1.90D-01 BMatP= 2.59D-02
 IDIUse=2 WtCom= 0.00D+00 WtEn= 1.00D+00
 Coeff-En:   0.000D+00 0.000D+00 0.000D+00 0.000D+00 0.000D+00 0.000D+00
 Coeff-En:   0.000D+00 0.100D+01
 Coeff:      0.000D+00 0.000D+00 0.000D+00 0.000D+00 0.000D+00 0.000D+00
 Coeff:      0.000D+00 0.100D+01
 Gap=     0.284 Goal=   None    Shift=    0.000
 Gap=     0.558 Goal=   None    Shift=    0.000
 RMSDP=5.67D-03 MaxDP=4.64D-02 DE=-5.19D-02 OVMax= 1.88D-01

 Cycle   9  Pass 1  IDiag  1:
 E= -1292.92929286671     Delta-E=       -0.058463707681 Rises=F Damp=F
 DIIS: error= 7.95D-02 at cycle   9 NSaved=   9.
 NSaved= 9 IEnMin= 9 EnMin= -1292.92929286671     IErMin= 6 ErrMin= 2.26D-02
 ErrMax= 7.95D-02  0.00D+00 EMaxC= 1.00D-01 BMatC= 2.25D-01 BMatP= 2.59D-02
 IDIUse=2 WtCom= 0.00D+00 WtEn= 1.00D+00
 Coeff-En:   0.000D+00 0.000D+00 0.000D+00 0.000D+00 0.000D+00 0.000D+00
 Coeff-En:   0.000D+00 0.000D+00 0.100D+01
 Coeff:      0.000D+00 0.000D+00 0.000D+00 0.000D+00 0.000D+00 0.000D+00
 Coeff:      0.000D+00 0.000D+00 0.100D+01
 Gap=     0.203 Goal=   None    Shift=    0.000
 Gap=     0.450 Goal=   None    Shift=    0.000
 RMSDP=7.28D-03 MaxDP=9.89D-02 DE=-5.85D-02 OVMax= 2.54D-01

 Cycle  10  Pass 1  IDiag  1:
 E= -1292.98811903573     Delta-E=       -0.058826169023 Rises=F Damp=F
 DIIS: error= 6.20D-02 at cycle  10 NSaved=  10.
 NSaved=10 IEnMin=10 EnMin= -1292.98811903573     IErMin= 6 ErrMin= 2.26D-02
 ErrMax= 6.20D-02  0.00D+00 EMaxC= 1.00D-01 BMatC= 3.60D-01 BMatP= 2.59D-02
 IDIUse=2 WtCom= 0.00D+00 WtEn= 1.00D+00
 Coeff-En:   0.000D+00 0.000D+00 0.000D+00 0.000D+00 0.000D+00 0.000D+00
 Coeff-En:   0.000D+00 0.000D+00 0.454D-01 0.955D+00
 Coeff:      0.000D+00 0.000D+00 0.000D+00 0.000D+00 0.000D+00 0.000D+00
 Coeff:      0.000D+00 0.000D+00 0.454D-01 0.955D+00
 Gap=     0.250 Goal=   None    Shift=    0.000
 Gap=     0.653 Goal=   None    Shift=    0.000
 RMSDP=6.57D-03 MaxDP=7.50D-02 DE=-5.88D-02 OVMax= 1.17D-01

 Cycle  11  Pass 1  IDiag  1:
 E= -1293.04289433648     Delta-E=       -0.054775300749 Rises=F Damp=F
 DIIS: error= 4.81D-02 at cycle  11 NSaved=  11.
 NSaved=11 IEnMin=11 EnMin= -1293.04289433648     IErMin= 6 ErrMin= 2.26D-02
 ErrMax= 4.81D-02  0.00D+00 EMaxC= 1.00D-01 BMatC= 1.59D-01 BMatP= 2.59D-02
 IDIUse=2 WtCom= 0.00D+00 WtEn= 1.00D+00
 Coeff-En:   0.000D+00 0.000D+00 0.000D+00 0.000D+00 0.000D+00 0.000D+00
 Coeff-En:   0.000D+00 0.000D+00 0.000D+00 0.164D-01 0.984D+00
 Coeff:      0.000D+00 0.000D+00 0.000D+00 0.000D+00 0.000D+00 0.000D+00
 Coeff:      0.000D+00 0.000D+00 0.000D+00 0.164D-01 0.984D+00
 Gap=     0.250 Goal=   None    Shift=    0.000
 Gap=     0.513 Goal=   None    Shift=    0.000
 RMSDP=5.12D-03 MaxDP=9.18D-02 DE=-5.48D-02 OVMax= 1.32D-01

 Cycle  12  Pass 1  IDiag  1:
 E= -1293.07603592090     Delta-E=       -0.033141584412 Rises=F Damp=F
 DIIS: error= 2.34D-02 at cycle  12 NSaved=  12.
 NSaved=12 IEnMin=12 EnMin= -1293.07603592090     IErMin= 6 ErrMin= 2.26D-02
 ErrMax= 2.34D-02  0.00D+00 EMaxC= 1.00D-01 BMatC= 1.16D-01 BMatP= 2.59D-02
 IDIUse=2 WtCom= 0.00D+00 WtEn= 1.00D+00
 Coeff-En:   0.000D+00 0.000D+00 0.000D+00 0.000D+00 0.000D+00 0.000D+00
 Coeff-En:   0.000D+00 0.000D+00 0.000D+00 0.000D+00 0.000D+00 0.100D+01
 Coeff:      0.000D+00 0.000D+00 0.000D+00 0.000D+00 0.000D+00 0.000D+00
 Coeff:      0.000D+00 0.000D+00 0.000D+00 0.000D+00 0.000D+00 0.100D+01
 Gap=     0.251 Goal=   None    Shift=    0.000
 Gap=     0.644 Goal=   None    Shift=    0.000
 RMSDP=3.76D-03 MaxDP=4.10D-02 DE=-3.31D-02 OVMax= 4.28D-02

 Cycle  13  Pass 1  IDiag  1:
 E= -1293.09282965518     Delta-E=       -0.016793734279 Rises=F Damp=F
 DIIS: error= 1.73D-02 at cycle  13 NSaved=  13.
 NSaved=13 IEnMin=13 EnMin= -1293.09282965518     IErMin=13 ErrMin= 1.73D-02
 ErrMax= 1.73D-02  0.00D+00 EMaxC= 1.00D-01 BMatC= 4.03D-02 BMatP= 2.59D-02
 IDIUse=2 WtCom= 0.00D+00 WtEn= 1.00D+00
 Coeff-En:   0.000D+00 0.000D+00 0.000D+00 0.000D+00 0.000D+00 0.000D+00
 Coeff-En:   0.000D+00 0.000D+00 0.000D+00 0.000D+00 0.000D+00 0.000D+00
 Coeff-En:   0.100D+01
 Coeff:      0.000D+00 0.000D+00 0.000D+00 0.000D+00 0.000D+00 0.000D+00
 Coeff:      0.000D+00 0.000D+00 0.000D+00 0.000D+00 0.000D+00 0.000D+00
 Coeff:      0.100D+01
 Gap=     0.270 Goal=   None    Shift=    0.000
 Gap=     0.573 Goal=   None    Shift=    0.000
 RMSDP=2.51D-03 MaxDP=5.04D-02 DE=-1.68D-02 OVMax= 4.81D-02

 Cycle  14  Pass 1  IDiag  1:
 E= -1293.10064651423     Delta-E=       -0.007816859058 Rises=F Damp=F
 DIIS: error= 1.06D-02 at cycle  14 NSaved=  14.
 NSaved=14 IEnMin=14 EnMin= -1293.10064651423     IErMin=14 ErrMin= 1.06D-02
 ErrMax= 1.06D-02  0.00D+00 EMaxC= 1.00D-01 BMatC= 2.43D-02 BMatP= 2.59D-02
 IDIUse=3 WtCom= 8.94D-01 WtEn= 1.06D-01
 Coeff-Com: -0.509D-02 0.673D-02-0.468D-03-0.130D-01-0.423D-01 0.242D+00
 Coeff-Com: -0.156D-01-0.399D+00 0.183D+00 0.708D+00-0.371D+00-0.176D+01
 Coeff-Com:  0.434D+00 0.203D+01
 Coeff-En:   0.000D+00 0.000D+00 0.000D+00 0.000D+00 0.000D+00 0.000D+00
 Coeff-En:   0.000D+00 0.000D+00 0.000D+00 0.000D+00 0.000D+00 0.000D+00
 Coeff-En:   0.000D+00 0.100D+01
 Coeff:     -0.455D-02 0.602D-02-0.419D-03-0.117D-01-0.379D-01 0.216D+00
 Coeff:     -0.140D-01-0.357D+00 0.163D+00 0.633D+00-0.331D+00-0.157D+01
 Coeff:      0.388D+00 0.192D+01
 Gap=     0.264 Goal=   None    Shift=    0.000
 Gap=     0.631 Goal=   None    Shift=    0.000
 RMSDP=1.75D-03 MaxDP=1.90D-02 DE=-7.82D-03 OVMax= 2.19D-02

 Cycle  15  Pass 1  IDiag  1:
 E= -1293.10627134204     Delta-E=       -0.005624827805 Rises=F Damp=F
 DIIS: error= 1.51D-03 at cycle  15 NSaved=  15.
 NSaved=15 IEnMin=15 EnMin= -1293.10627134204     IErMin=15 ErrMin= 1.51D-03
 ErrMax= 1.51D-03  0.00D+00 EMaxC= 1.00D-01 BMatC= 1.85D-04 BMatP= 2.43D-02
 IDIUse=3 WtCom= 9.85D-01 WtEn= 1.51D-02
 Coeff-Com: -0.303D-02 0.352D-02 0.748D-04 0.204D-02 0.239D-02 0.392D-01
 Coeff-Com: -0.202D-01-0.121D+00 0.479D-01 0.199D+00-0.598D-01-0.444D+00
 Coeff-Com: -0.435D-01 0.424D+00 0.973D+00
 Coeff-En:   0.000D+00 0.000D+00 0.000D+00 0.000D+00 0.000D+00 0.000D+00
 Coeff-En:   0.000D+00 0.000D+00 0.000D+00 0.000D+00 0.000D+00 0.000D+00
 Coeff-En:   0.000D+00 0.000D+00 0.100D+01
 Coeff:     -0.299D-02 0.347D-02 0.737D-04 0.201D-02 0.236D-02 0.386D-01
 Coeff:     -0.199D-01-0.119D+00 0.472D-01 0.196D+00-0.589D-01-0.437D+00
 Coeff:     -0.429D-01 0.418D+00 0.973D+00
 Gap=     0.271 Goal=   None    Shift=    0.000
 Gap=     0.638 Goal=   None    Shift=    0.000
 RMSDP=6.31D-04 MaxDP=1.21D-02 DE=-5.62D-03 OVMax= 1.24D-02

 Cycle  16  Pass 1  IDiag  1:
 E= -1293.10648390042     Delta-E=       -0.000212558382 Rises=F Damp=F
 DIIS: error= 8.66D-04 at cycle  16 NSaved=  16.
 NSaved=16 IEnMin=16 EnMin= -1293.10648390042     IErMin=16 ErrMin= 8.66D-04
 ErrMax= 8.66D-04  0.00D+00 EMaxC= 1.00D-01 BMatC= 2.22D-05 BMatP= 1.85D-04
 IDIUse=3 WtCom= 9.91D-01 WtEn= 8.66D-03
 Coeff-Com: -0.324D-03 0.728D-03-0.118D-04-0.365D-02-0.659D-02 0.389D-02
 Coeff-Com: -0.146D-02 0.160D-01 0.286D-01-0.504D-01-0.328D-01 0.192D+00
 Coeff-Com:  0.320D-01-0.265D+00-0.608D-01 0.115D+01
 Coeff-En:   0.000D+00 0.000D+00 0.000D+00 0.000D+00 0.000D+00 0.000D+00
 Coeff-En:   0.000D+00 0.000D+00 0.000D+00 0.000D+00 0.000D+00 0.000D+00
 Coeff-En:   0.000D+00 0.000D+00 0.000D+00 0.100D+01
 Coeff:     -0.321D-03 0.722D-03-0.117D-04-0.362D-02-0.653D-02 0.386D-02
 Coeff:     -0.145D-02 0.159D-01 0.283D-01-0.500D-01-0.325D-01 0.191D+00
 Coeff:      0.317D-01-0.262D+00-0.603D-01 0.115D+01
 Gap=     0.270 Goal=   None    Shift=    0.000
 Gap=     0.637 Goal=   None    Shift=    0.000
 RMSDP=1.75D-04 MaxDP=1.40D-03 DE=-2.13D-04 OVMax= 5.33D-03

 Cycle  17  Pass 1  IDiag  1:
 E= -1293.10650359642     Delta-E=       -0.000019695999 Rises=F Damp=F
 DIIS: error= 2.77D-04 at cycle  17 NSaved=  17.
 NSaved=17 IEnMin=17 EnMin= -1293.10650359642     IErMin=17 ErrMin= 2.77D-04
 ErrMax= 2.77D-04  0.00D+00 EMaxC= 1.00D-01 BMatC= 6.38D-06 BMatP= 2.22D-05
 IDIUse=3 WtCom= 9.97D-01 WtEn= 2.77D-03
 Coeff-Com:  0.694D-03-0.823D-03 0.128D-04-0.257D-04-0.373D-02 0.550D-02
 Coeff-Com:  0.268D-02-0.784D-02 0.258D-02 0.105D-01 0.532D-03-0.438D-01
 Coeff-Com:  0.493D-02 0.583D-01-0.107D+00 0.522D-01 0.103D+01
 Coeff-En:   0.000D+00 0.000D+00 0.000D+00 0.000D+00 0.000D+00 0.000D+00
 Coeff-En:   0.000D+00 0.000D+00 0.000D+00 0.000D+00 0.000D+00 0.000D+00
 Coeff-En:   0.000D+00 0.000D+00 0.000D+00 0.000D+00 0.100D+01
 Coeff:      0.692D-03-0.821D-03 0.128D-04-0.257D-04-0.372D-02 0.548D-02
 Coeff:      0.267D-02-0.782D-02 0.257D-02 0.105D-01 0.531D-03-0.437D-01
 Coeff:      0.492D-02 0.581D-01-0.106D+00 0.521D-01 0.102D+01
 Gap=     0.270 Goal=   None    Shift=    0.000
 Gap=     0.637 Goal=   None    Shift=    0.000
 RMSDP=4.46D-05 MaxDP=6.48D-04 DE=-1.97D-05 OVMax= 6.38D-04

 Cycle  18  Pass 1  IDiag  1:
 E= -1293.10650635986     Delta-E=       -0.000002763440 Rises=F Damp=F
 DIIS: error= 2.86D-05 at cycle  18 NSaved=  18.
 NSaved=18 IEnMin=18 EnMin= -1293.10650635986     IErMin=18 ErrMin= 2.86D-05
 ErrMax= 2.86D-05  0.00D+00 EMaxC= 1.00D-01 BMatC= 4.60D-08 BMatP= 6.38D-06
 IDIUse=1 WtCom= 1.00D+00 WtEn= 0.00D+00
 Coeff-Com: -0.695D-04 0.804D-04 0.413D-05 0.255D-04 0.218D-03 0.411D-03
 Coeff-Com: -0.211D-04-0.121D-02-0.168D-02 0.175D-02 0.186D-02-0.433D-02
 Coeff-Com: -0.164D-02 0.585D-02 0.145D-02-0.409D-01-0.998D-01 0.114D+01
 Coeff:     -0.695D-04 0.804D-04 0.413D-05 0.255D-04 0.218D-03 0.411D-03
 Coeff:     -0.211D-04-0.121D-02-0.168D-02 0.175D-02 0.186D-02-0.433D-02
 Coeff:     -0.164D-02 0.585D-02 0.145D-02-0.409D-01-0.998D-01 0.114D+01
 Gap=     0.271 Goal=   None    Shift=    0.000
 Gap=     0.637 Goal=   None    Shift=    0.000
 RMSDP=9.41D-06 MaxDP=1.81D-04 DE=-2.76D-06 OVMax= 1.75D-04

 Cycle  19  Pass 1  IDiag  1:
 E= -1293.10650638932     Delta-E=       -0.000000029459 Rises=F Damp=F
 DIIS: error= 2.40D-05 at cycle  19 NSaved=  19.
 NSaved=19 IEnMin=19 EnMin= -1293.10650638932     IErMin=19 ErrMin= 2.40D-05
 ErrMax= 2.40D-05  0.00D+00 EMaxC= 1.00D-01 BMatC= 4.34D-08 BMatP= 4.60D-08
 IDIUse=1 WtCom= 1.00D+00 WtEn= 0.00D+00
 Coeff-Com: -0.239D-04 0.221D-04 0.660D-06-0.620D-04-0.113D-04-0.905D-04
 Coeff-Com:  0.283D-03-0.209D-03-0.138D-04 0.114D-02 0.372D-04-0.387D-02
 Coeff-Com:  0.118D-03 0.516D-02-0.791D-03-0.970D-02 0.131D+00-0.635D+00
 Coeff-Com:  0.151D+01
 Coeff:     -0.239D-04 0.221D-04 0.660D-06-0.620D-04-0.113D-04-0.905D-04
 Coeff:      0.283D-03-0.209D-03-0.138D-04 0.114D-02 0.372D-04-0.387D-02
 Coeff:      0.118D-03 0.516D-02-0.791D-03-0.970D-02 0.131D+00-0.635D+00
 Coeff:      0.151D+01
 Gap=     0.271 Goal=   None    Shift=    0.000
 Gap=     0.637 Goal=   None    Shift=    0.000
 RMSDP=4.23D-06 MaxDP=4.51D-05 DE=-2.95D-08 OVMax= 5.46D-05

 Cycle  20  Pass 1  IDiag  1:
 E= -1293.10650640652     Delta-E=       -0.000000017199 Rises=F Damp=F
 DIIS: error= 1.89D-06 at cycle  20 NSaved=  20.
 NSaved=20 IEnMin=20 EnMin= -1293.10650640652     IErMin=20 ErrMin= 1.89D-06
 ErrMax= 1.89D-06  0.00D+00 EMaxC= 1.00D-01 BMatC= 2.54D-10 BMatP= 4.34D-08
 IDIUse=1 WtCom= 1.00D+00 WtEn= 0.00D+00
 Coeff-Com:  0.118D-05 0.501D-06-0.721D-06 0.349D-04-0.262D-04 0.217D-03
 Coeff-Com: -0.185D-03-0.203D-03 0.248D-03 0.535D-05-0.294D-03 0.536D-03
 Coeff-Com:  0.177D-03-0.108D-02-0.190D-03 0.647D-02-0.681D-01 0.267D+00
 Coeff-Com: -0.826D+00 0.162D+01
 Coeff:      0.118D-05 0.501D-06-0.721D-06 0.349D-04-0.262D-04 0.217D-03
 Coeff:     -0.185D-03-0.203D-03 0.248D-03 0.535D-05-0.294D-03 0.536D-03
 Coeff:      0.177D-03-0.108D-02-0.190D-03 0.647D-02-0.681D-01 0.267D+00
 Coeff:     -0.826D+00 0.162D+01
 Gap=     0.271 Goal=   None    Shift=    0.000
 Gap=     0.637 Goal=   None    Shift=    0.000
 RMSDP=5.61D-07 MaxDP=1.51D-05 DE=-1.72D-08 OVMax= 9.46D-06

 Cycle  21  Pass 1  IDiag  1:
 E= -1293.10650640668     Delta-E=       -0.000000000159 Rises=F Damp=F
 DIIS: error= 1.33D-06 at cycle  21 NSaved=  20.
 NSaved=20 IEnMin=20 EnMin= -1293.10650640668     IErMin=20 ErrMin= 1.33D-06
 ErrMax= 1.33D-06  0.00D+00 EMaxC= 1.00D-01 BMatC= 9.57D-11 BMatP= 2.54D-10
 IDIUse=1 WtCom= 1.00D+00 WtEn= 0.00D+00
 Coeff-Com:  0.905D-06-0.127D-05-0.476D-05 0.211D-05-0.341D-04-0.657D-05
 Coeff-Com:  0.150D-04 0.377D-04 0.626D-04-0.951D-04-0.265D-03 0.180D-03
 Coeff-Com:  0.404D-03-0.852D-03-0.113D-02 0.209D-01-0.786D-01 0.255D+00
 Coeff-Com: -0.740D+00 0.154D+01
 Coeff:      0.905D-06-0.127D-05-0.476D-05 0.211D-05-0.341D-04-0.657D-05
 Coeff:      0.150D-04 0.377D-04 0.626D-04-0.951D-04-0.265D-03 0.180D-03
 Coeff:      0.404D-03-0.852D-03-0.113D-02 0.209D-01-0.786D-01 0.255D+00
 Coeff:     -0.740D+00 0.154D+01
 Gap=     0.271 Goal=   None    Shift=    0.000
 Gap=     0.637 Goal=   None    Shift=    0.000
 RMSDP=5.29D-07 MaxDP=8.53D-06 DE=-1.59D-10 OVMax= 9.65D-06

 Cycle  22  Pass 1  IDiag  1:
 E= -1293.10650640669     Delta-E=       -0.000000000016 Rises=F Damp=F
 DIIS: error= 1.02D-06 at cycle  22 NSaved=  20.
 NSaved=20 IEnMin=20 EnMin= -1293.10650640669     IErMin=20 ErrMin= 1.02D-06
 ErrMax= 1.02D-06  0.00D+00 EMaxC= 1.00D-01 BMatC= 5.55D-11 BMatP= 9.57D-11
 IDIUse=1 WtCom= 1.00D+00 WtEn= 0.00D+00
 Coeff-Com: -0.501D-07-0.153D-06 0.236D-05-0.696D-05 0.203D-04 0.999D-05
 Coeff-Com: -0.410D-04-0.311D-04 0.870D-04 0.870D-04-0.178D-03-0.123D-03
 Coeff-Com:  0.124D-02-0.968D-03-0.389D-02 0.122D-01-0.337D-01 0.160D+00
 Coeff-Com: -0.510D+00 0.137D+01
 Coeff:     -0.501D-07-0.153D-06 0.236D-05-0.696D-05 0.203D-04 0.999D-05
 Coeff:     -0.410D-04-0.311D-04 0.870D-04 0.870D-04-0.178D-03-0.123D-03
 Coeff:      0.124D-02-0.968D-03-0.389D-02 0.122D-01-0.337D-01 0.160D+00
 Coeff:     -0.510D+00 0.137D+01
 Gap=     0.271 Goal=   None    Shift=    0.000
 Gap=     0.637 Goal=   None    Shift=    0.000
 RMSDP=3.35D-07 MaxDP=6.13D-06 DE=-1.59D-11 OVMax= 7.56D-06

 Cycle  23  Pass 1  IDiag  1:
 E= -1293.10650640675     Delta-E=       -0.000000000059 Rises=F Damp=F
 DIIS: error= 3.41D-07 at cycle  23 NSaved=  20.
 NSaved=20 IEnMin=20 EnMin= -1293.10650640675     IErMin=20 ErrMin= 3.41D-07
 ErrMax= 3.41D-07  0.00D+00 EMaxC= 1.00D-01 BMatC= 5.56D-12 BMatP= 5.55D-11
 IDIUse=1 WtCom= 1.00D+00 WtEn= 0.00D+00
 Coeff-Com:  0.117D-06 0.191D-07 0.201D-05 0.211D-05-0.288D-05-0.108D-05
 Coeff-Com:  0.309D-05-0.632D-05-0.779D-05 0.216D-04 0.892D-05-0.205D-03
 Coeff-Com:  0.237D-03-0.398D-03 0.186D-02-0.855D-02 0.179D-01-0.236D-01
 Coeff-Com: -0.334D-01 0.105D+01
 Coeff:      0.117D-06 0.191D-07 0.201D-05 0.211D-05-0.288D-05-0.108D-05
 Coeff:      0.309D-05-0.632D-05-0.779D-05 0.216D-04 0.892D-05-0.205D-03
 Coeff:      0.237D-03-0.398D-03 0.186D-02-0.855D-02 0.179D-01-0.236D-01
 Coeff:     -0.334D-01 0.105D+01
 Gap=     0.271 Goal=   None    Shift=    0.000
 Gap=     0.637 Goal=   None    Shift=    0.000
 RMSDP=6.17D-08 MaxDP=1.14D-06 DE=-5.89D-11 OVMax= 1.32D-06

 Cycle  24  Pass 1  IDiag  1:
 E= -1293.10650640676     Delta-E=       -0.000000000007 Rises=F Damp=F
 DIIS: error= 9.23D-08 at cycle  24 NSaved=  20.
 NSaved=20 IEnMin=20 EnMin= -1293.10650640676     IErMin=20 ErrMin= 9.23D-08
 ErrMax= 9.23D-08  0.00D+00 EMaxC= 1.00D-01 BMatC= 4.18D-13 BMatP= 5.56D-12
 IDIUse=1 WtCom= 1.00D+00 WtEn= 0.00D+00
 Large coefficients: NSaved= 20 BigCof=    0.00 CofMax=   10.00 Det=-4.77D-15
 Inversion failed.  Reducing to 19 matrices.
 Large coefficients: NSaved= 19 BigCof=    0.00 CofMax=   10.00 Det=-4.84D-15
 Inversion failed.  Reducing to 18 matrices.
 Large coefficients: NSaved= 18 BigCof=    0.00 CofMax=   10.00 Det=-5.59D-15
 Inversion failed.  Reducing to 17 matrices.
 Large coefficients: NSaved= 17 BigCof=    0.00 CofMax=   10.00 Det=-6.08D-15
 Inversion failed.  Reducing to 16 matrices.
 Large coefficients: NSaved= 16 BigCof=    0.00 CofMax=   10.00 Det=-6.08D-15
 Inversion failed.  Reducing to 15 matrices.
 Coeff-Com:  0.261D-06 0.879D-06-0.967D-06-0.350D-05 0.179D-05 0.439D-04
 Coeff-Com: -0.395D-04-0.800D-04 0.322D-03 0.251D-03 0.159D-03-0.644D-02
 Coeff-Com:  0.368D-01-0.498D+00 0.147D+01
 Coeff:      0.261D-06 0.879D-06-0.967D-06-0.350D-05 0.179D-05 0.439D-04
 Coeff:     -0.395D-04-0.800D-04 0.322D-03 0.251D-03 0.159D-03-0.644D-02
 Coeff:      0.368D-01-0.498D+00 0.147D+01
 Gap=     0.271 Goal=   None    Shift=    0.000
 Gap=     0.637 Goal=   None    Shift=    0.000
 RMSDP=2.13D-08 MaxDP=3.69D-07 DE=-7.28D-12 OVMax= 4.66D-07

 Cycle  25  Pass 1  IDiag  1:
 E= -1293.10650640676     Delta-E=       -0.000000000003 Rises=F Damp=F
 DIIS: error= 1.82D-09 at cycle  25 NSaved=  16.
 NSaved=16 IEnMin=16 EnMin= -1293.10650640676     IErMin=16 ErrMin= 1.82D-09
 ErrMax= 1.82D-09  0.00D+00 EMaxC= 1.00D-01 BMatC= 3.67D-16 BMatP= 4.18D-13
 IDIUse=1 WtCom= 1.00D+00 WtEn= 0.00D+00
 Large coefficients: NSaved= 16 BigCof=    0.00 CofMax=   10.00 Det=-1.36D-16
 Inversion failed.  Reducing to 15 matrices.
 Coeff-Com: -0.768D-07 0.450D-07 0.360D-06-0.238D-06-0.580D-05 0.446D-05
 Coeff-Com:  0.888D-05-0.486D-04-0.561D-04-0.357D-04 0.147D-02-0.731D-02
 Coeff-Com:  0.960D-01-0.372D+00 0.128D+01
 Coeff:     -0.768D-07 0.450D-07 0.360D-06-0.238D-06-0.580D-05 0.446D-05
 Coeff:      0.888D-05-0.486D-04-0.561D-04-0.357D-04 0.147D-02-0.731D-02
 Coeff:      0.960D-01-0.372D+00 0.128D+01
 Gap=     0.271 Goal=   None    Shift=    0.000
 Gap=     0.637 Goal=   None    Shift=    0.000
 RMSDP=6.23D-10 MaxDP=1.33D-08 DE=-2.96D-12 OVMax= 9.76D-09

 SCF Done:  E(UHF) =  -1293.10650641     A.U. after   25 cycles
            NFock= 25  Conv=0.62D-09     -V/T= 2.0026
 <Sx>= 0.0000 <Sy>= 0.0000 <Sz>= 1.5000 <S**2>= 6.3137 S= 2.0620
 <L.S>= 0.000000000000E+00
 KE= 1.289729129517D+03 PE=-3.320672804713D+03 EE= 6.136312044585D+02
 Annihilation of the first spin contaminant:
 S**2 before annihilation     6.3137,   after     8.2747
 Leave Link  502 at Tue Sep 22 15:17:28 2015, MaxMem=    33554432 cpu:               0.2 elap:               0.2
 (Enter /home/gauss/gdvi01p/gdv/l801.exe)
 Range of M.O.s used for correlation:     1    47
 NBasis=    47 NAE=    22 NBE=    19 NFC=     0 NFV=     0
 NROrb=     47 NOA=    22 NOB=    19 NVA=    25 NVB=    28

 **** Warning!!: The largest alpha MO coefficient is  0.11989614D+02


 **** Warning!!: The largest beta MO coefficient is  0.11987197D+02

 Leave Link  801 at Tue Sep 22 15:17:28 2015, MaxMem=    33554432 cpu:               0.0 elap:               0.0
 (Enter /home/gauss/gdvi01p/gdv/l804.exe)
 Open-shell transformation, MDV=    33554432 ITran=3 ISComp=1.
 Unit  1 TFree=        137648 TCopy=        169143.
 Semi-Direct transformation.
 ModeAB=           2 MOrb=            22 LenV=      33348065
 LASXX=       525646 LTotXX=      525646 LenRXX=      525646
 LTotAB=      682484 MaxLAS=     1166352 LenRXY=     1166352
 NonZer=     1210814 LenScr=     2420736 LnRSAI=           0
 LnScr1=           0 LExtra=           0 Total=      4112734
 MaxDsk=          -1 SrtSym=           F ITran=            3
 DoSDTr:  NPSUse=  1
 JobTyp=1 Pass  1:  I=   1 to  22.
 (rs|ai) integrals will be sorted in core.
 Complete sort for first half transformation.
 First half transformation complete.
 Begin second half transformation for I=  10.
 Begin second half transformation for I=  20.
 Begin second half transformation for I=  10.
 Begin second half transformation for I=  20.
 Complete sort for second half transformation.
 Second half transformation complete.
 ModeAB=           2 MOrb=            19 LenV=      33348065
 LASXX=       453340 LTotXX=      453340 LenRXX=     1007304
 LTotAB=       61750 MaxLAS=     1007304 LenRXY=       61750
 NonZer=     1045703 LenScr=     2351616 LnRSAI=           0
 LnScr1=           0 LExtra=           0 Total=      3420670
 MaxDsk=          -1 SrtSym=           F ITran=            3
 DoSDTr:  NPSUse=  1
 JobTyp=2 Pass  1:  I=   1 to  19.
 (rs|ai) integrals will be sorted in core.
 Complete sort for first half transformation.
 First half transformation complete.
 Begin second half transformation for I=  10.
 Begin second half transformation for I=  10.
 Complete sort for second half transformation.
 Second half transformation complete.
 Spin components of T(2) and E(2):
     alpha-alpha T2 =       0.8943770642D-01 E2=     -0.1125503551D+00
     alpha-beta  T2 =       0.5429768826D-01 E2=     -0.1949642633D+00
     beta-beta   T2 =       0.1055273546D-01 E2=     -0.5430316566D-01
 ANorm=    0.1074378020D+01
 E2 =    -0.3618177841D+00 EUMP2 =    -0.12934683241908D+04
 (S**2,0)=  0.63137D+01           (S**2,1)=  0.61324D+01
 E(PUHF)=      -0.12931621279D+04        E(PMP2)=      -0.12935231559D+04
 Leave Link  804 at Tue Sep 22 15:17:29 2015, MaxMem=    33554432 cpu:               0.9 elap:               0.9
 (Enter /home/gauss/gdvi01p/gdv/l914.exe)
 UHF ground state
 Ignoring spin specification with unrestricted ground state.
 MDV=    33554432 DFT=F DoStab=F Mixed=F DoRPA=T DoScal=F NonHer=T
 Making orbital integer symmetry assigments:
 FoFJK:  IHMeth= 1 ICntrl=       0 DoSepK=F KAlg= 0 I1Cent=           0 FoldK=F
 IRaf=         0 NMat=       2 IRICut=       1 DoRegI=T DoRafI=F ISym2E= 0 IDoP0=0 IntGTp=1.
 FoFCou: FMM=F IPFlag=           0 FMFlag=      100000 FMFlg1=           0
         NFxFlg=           0 DoJE=F BraDBF=F KetDBF=F FulRan=T
         wScrn=  0.000000 ICntrl=         0 IOpCl=  1 I1Cent=           0 NGrid=           0
         NMat0=    2 NMatS0=      2 NMatT0=    0 NMatD0=    2 NMtDS0=    0 NMtDT0=    0
 Symmetry not used in FoFCou.
    48 initial guesses have been made.
 Convergence on wavefunction:    0.001000000000000
 Davidson Disk Diagonalization:  ConvIn= 1.00D-03 SkipCon=T Conv= 1.00D-03.
 Max sub-space:   200 roots to seek:    48 dimension of matrix:         1082
 Iteration     1 Dimension    48 NMult     0 NNew     48
 New state      1 was old state      2
 New state      2 was old state      1
 New state      3 was old state     14
 New state      4 was old state     13
 New state      7 was old state      4
 New state      9 was old state     10
 New state     10 was old state      9
 New state     11 was old state     20
 New state     12 was old state     11
 Excitation Energies [eV] at current iteration:
 Root      1 :    -3.331169480230739
 Root      2 :    -3.331169480230726
 Root      3 :     1.594516090477465
 Root      4 :     1.594516090477465
 Root      5 :     1.957691021526424
 Root      6 :     1.957691021526592
 Root      7 :     3.341333433721559
 Root      8 :     3.680932350828934
 Root      9 :     3.680932350828979
 Root     10 :     3.789034903957949
 Root     11 :     4.119996348401503
 Root     12 :     4.455623041122458
 Root     13 :     4.455623041122699
 Root     14 :     5.425135179357779
 Root     15 :     5.425135179357810
 Root     16 :     5.528912198721947
 Root     17 :     6.880518019990198
 Root     18 :     6.880518019990222
 Root     19 :     7.028291519520173
 Root     20 :     7.260472798806236
 Root     21 :     7.260472798806280
 Root     22 :     7.537030426845451
 Root     23 :     8.047857563772260
 Root     24 :     9.528219962576562
 Root     25 :     9.528219962576848
 Root     26 :     9.915426722520563
 Root     27 :    10.153287713153500
 Root     28 :    10.153287713153500
 Root     29 :    10.194286771263530
 Root     30 :    10.620600633827230
 Root     31 :    10.620600633827230
 Root     32 :    10.665467017760380
 Root     33 :    10.665467017760500
 Root     34 :    10.965009068100840
 Root     35 :    10.965009068100930
 Root     36 :    11.172236775968150
 Root     37 :    11.172236775968600
 Root     38 :    11.475105502441660
 Root     39 :    14.213939009076870
 Root     40 :    15.187209144650460
 Root     41 :    15.902493667219430
 Root     42 :    15.902493667219490
 Root     43 :    15.930334698197750
 Root     44 :    15.930334698198080
 Root     45 :    17.772963984195780
 Root     46 :    17.772963984195790
 Root     47 :    18.221594982454540
 Root     48 :    18.221594982454660
 Iteration     2 Dimension    72 NMult    48 NNew     24
 New state      1 was old state      2
 Root      1 not converged, maximum delta is    0.030390696716498
 New state      2 was old state      1
 Root      2 not converged, maximum delta is    0.030390696716498
 New state      3 was old state      4
 Root      3 not converged, maximum delta is    0.599063071459867
 New state      4 was old state      3
 Root      4 not converged, maximum delta is    0.599063071459572
 New state      5 was old state      6
 Root      5 not converged, maximum delta is    0.643457733824411
 New state      6 was old state      5
 Root      6 not converged, maximum delta is    0.643457733824457
 New state      7 was old state     12
 Root      7 not converged, maximum delta is    0.301948139887039
 New state      8 was old state     11
 Root      8 not converged, maximum delta is    0.103836272349721
 New state      9 was old state      7
 Root      9 not converged, maximum delta is    0.015853131874825
 New state     10 was old state      9
 Root     10 not converged, maximum delta is    0.200756627555349
 New state     11 was old state      8
 Root     11 not converged, maximum delta is    0.200756627555284
 New state     12 was old state     10
 Root     12 not converged, maximum delta is    0.005448898047632
 Excitation Energies [eV] at current iteration:
 Root      1 :    -3.358281375993902   Change is   -0.027111895763176
 Root      2 :    -3.358281375993816   Change is   -0.027111895763078
 Root      3 :    -0.369043668489327   Change is   -1.963559758966792
 Root      4 :    -0.369043668488993   Change is   -1.963559758966458
 Root      5 :     1.157152680193768   Change is   -0.800538341332824
 Root      6 :     1.157152680193768   Change is   -0.800538341332656
 Root      7 :     2.129845260460534   Change is   -2.325777780661925
 Root      8 :     3.038574933502343   Change is   -1.081421414899160
 Root      9 :     3.349139707995576   Change is    0.007806274274017
 Root     10 :     3.663990650846097   Change is   -0.016941699982882
 Root     11 :     3.663990650846097   Change is   -0.016941699982837
 Root     12 :     3.781872935994272   Change is   -0.007161967963677
 Iteration     3 Dimension    96 NMult    72 NNew     24
 New state      1 was old state      2
 Root      1 not converged, maximum delta is    0.073278525231068
 New state      2 was old state      1
 Root      2 not converged, maximum delta is    0.073278525231078
 Root      3 not converged, maximum delta is    0.178647171597542
 Root      4 not converged, maximum delta is    0.178647171596835
 Root      5 not converged, maximum delta is    0.160045809996642
 Root      6 not converged, maximum delta is    0.160045809996560
 Root      7 not converged, maximum delta is    0.026183937985504
 Root      8 not converged, maximum delta is    0.016919813915362
 Root      9 not converged, maximum delta is    0.004147761176461
 Root     10 not converged, maximum delta is    0.062952207979897
 Root     11 not converged, maximum delta is    0.062952207979748
 Root     12 has converged.
 Excitation Energies [eV] at current iteration:
 Root      1 :    -3.358072627978133   Change is    0.000208748015683
 Root      2 :    -3.358072627977999   Change is    0.000208748015903
 Root      3 :    -0.384327390636617   Change is   -0.015283722147290
 Root      4 :    -0.384327390636510   Change is   -0.015283722147517
 Root      5 :     1.135974851698485   Change is   -0.021177828495283
 Root      6 :     1.135974851698919   Change is   -0.021177828494849
 Root      7 :     2.077740103932457   Change is   -0.052105156528076
 Root      8 :     2.985718389880554   Change is   -0.052856543621788
 Root      9 :     3.360931425630033   Change is    0.011791717634457
 Root     10 :     3.663530998761953   Change is   -0.000459652084144
 Root     11 :     3.663530998761976   Change is   -0.000459652084121
 Root     12 :     3.781870297568670   Change is   -0.000002638425602
 Iteration     4 Dimension   118 NMult    96 NNew     22
 New state      1 was old state      2
 Root      1 not converged, maximum delta is    0.047221641013655
 New state      2 was old state      1
 Root      2 not converged, maximum delta is    0.047221641013664
 Root      3 not converged, maximum delta is    0.236061359531222
 Root      4 not converged, maximum delta is    0.236061359531593
 New state      5 was old state      6
 Root      5 not converged, maximum delta is    0.383552410471040
 New state      6 was old state      5
 Root      6 not converged, maximum delta is    0.383552410471058
 Root      7 not converged, maximum delta is    0.004035764382915
 Root      8 not converged, maximum delta is    0.004382719709712
 Root      9 has converged.
 New state     10 was old state     11
 Root     10 not converged, maximum delta is    0.219534514020814
 New state     11 was old state     10
 Root     11 not converged, maximum delta is    0.219534514020858
 Root     12 has converged.
 Excitation Energies [eV] at current iteration:
 Root      1 :    -3.357501560531097   Change is    0.000571067446902
 Root      2 :    -3.357501560530816   Change is    0.000571067447318
 Root      3 :    -0.384545654774310   Change is   -0.000218264137693
 Root      4 :    -0.384545654773989   Change is   -0.000218264137479
 Root      5 :     1.135659987568054   Change is   -0.000314864130866
 Root      6 :     1.135659987568271   Change is   -0.000314864130214
 Root      7 :     2.076673308223623   Change is   -0.001066795708834
 Root      8 :     2.983943412738125   Change is   -0.001774977142430
 Root      9 :     3.362301658133866   Change is    0.001370232503832
 Root     10 :     3.663485296760568   Change is   -0.000045702001408
 Root     11 :     3.663485296760837   Change is   -0.000045702001116
 Root     12 :     3.781870297568735   Change is    0.000000000000065
 Iteration     5 Dimension   138 NMult   118 NNew     20
 New state      1 was old state      2
 Root      1 not converged, maximum delta is    0.194333407415933
 New state      2 was old state      1
 Root      2 not converged, maximum delta is    0.194333407415905
 New state      3 was old state      4
 Root      3 not converged, maximum delta is    0.763940934680557
 New state      4 was old state      3
 Root      4 not converged, maximum delta is    0.763940934683578
 Root      5 not converged, maximum delta is    0.645824145873676
 Root      6 not converged, maximum delta is    0.645824145872345
 Root      7 has converged.
 Root      8 not converged, maximum delta is    0.001340710351654
 Root      9 has converged.
 New state     10 was old state     11
 Root     10 not converged, maximum delta is    0.014919559013910
 New state     11 was old state     10
 Root     11 not converged, maximum delta is    0.014919559013888
 Root     12 has converged.
 Excitation Energies [eV] at current iteration:
 Root      1 :    -3.357376071522310   Change is    0.000125489008505
 Root      2 :    -3.357376071522236   Change is    0.000125489008860
 Root      3 :    -0.384493742147767   Change is    0.000051912626223
 Root      4 :    -0.384493742146377   Change is    0.000051912627933
 Root      5 :     1.135654534914228   Change is   -0.000005452653825
 Root      6 :     1.135654534914445   Change is   -0.000005452653825
 Root      7 :     2.076648558850743   Change is   -0.000024749372880
 Root      8 :     2.983835700403659   Change is   -0.000107712334466
 Root      9 :     3.362301658133842   Change is   -0.000000000000024
 Root     10 :     3.663483723691773   Change is   -0.000001573069065
 Root     11 :     3.663483723691907   Change is   -0.000001573068660
 Root     12 :     3.781870297568713   Change is   -0.000000000000022
 Iteration     6 Dimension   156 NMult   138 NNew     18
 Root      1 not converged, maximum delta is    0.008029335851890
 Root      2 not converged, maximum delta is    0.008029335852148
 New state      3 was old state      4
 Root      3 not converged, maximum delta is    0.593679040788568
 New state      4 was old state      3
 Root      4 not converged, maximum delta is    0.593679040784814
 Root      5 not converged, maximum delta is    0.545568998371657
 Root      6 not converged, maximum delta is    0.545568998370354
 Root      7 has converged.
 Root      8 has converged.
 Root      9 has converged.
 New state     10 was old state     11
 Root     10 not converged, maximum delta is    0.011323636998310
 New state     11 was old state     10
 Root     11 not converged, maximum delta is    0.011323636998592
 Root     12 has converged.
 Excitation Energies [eV] at current iteration:
 Root      1 :    -3.356977736688089   Change is    0.000398334834221
 Root      2 :    -3.356977736687796   Change is    0.000398334834441
 Root      3 :    -0.384452851167154   Change is    0.000040890979223
 Root      4 :    -0.384452851165871   Change is    0.000040890981895
 Root      5 :     1.135654461473199   Change is   -0.000000073441029
 Root      6 :     1.135654461473199   Change is   -0.000000073441246
 Root      7 :     2.076648558850703   Change is   -0.000000000000040
 Root      8 :     2.983829729890211   Change is   -0.000005970513448
 Root      9 :     3.362301658133695   Change is   -0.000000000000147
 Root     10 :     3.663483698795856   Change is   -0.000000024896052
 Root     11 :     3.663483698795878   Change is   -0.000000024895895
 Root     12 :     3.781870297568670   Change is   -0.000000000000043
 Iteration     7 Dimension   166 NMult   156 NNew     10
 DSYEVD-2 returned Info=         333 IAlg= 4 N=   166 NDim=   166 NE2=      200548 trying  DSYEV.
 New state      1 was old state      2
 Root      1 not converged, maximum delta is    0.253068200860877
 New state      2 was old state      1
 Root      2 not converged, maximum delta is    0.253068200860599
 New state      3 was old state      4
 Root      3 not converged, maximum delta is    0.043765586348169
 New state      4 was old state      3
 Root      4 not converged, maximum delta is    0.043765586358000
 Root      5 not converged, maximum delta is    0.091839759311720
 Root      6 not converged, maximum delta is    0.091839759312144
 Root      7 has converged.
 Root      8 has converged.
 Root      9 has converged.
 Root     10 not converged, maximum delta is    0.427350043745177
 Root     11 not converged, maximum delta is    0.427350043745088
 Root     12 has converged.
 Excitation Energies [eV] at current iteration:
 Root      1 :    -3.356912619317625   Change is    0.000065117370171
 Root      2 :    -3.356912619317564   Change is    0.000065117370525
 Root      3 :    -0.384449017967841   Change is    0.000003833198030
 Root      4 :    -0.384449017959081   Change is    0.000003833208074
 Root      5 :     1.135654461086655   Change is   -0.000000000386544
 Root      6 :     1.135654461089113   Change is   -0.000000000384086
 Root      7 :     2.076648558850753   Change is    0.000000000000049
 Root      8 :     2.983829729890067   Change is   -0.000000000000144
 Root      9 :     3.362301658133738   Change is    0.000000000000043
 Root     10 :     3.663483698466599   Change is   -0.000000000329257
 Root     11 :     3.663483698466609   Change is   -0.000000000329270
 Root     12 :     3.781870297568705   Change is    0.000000000000035
 Iteration     8 Dimension   172 NMult   166 NNew      6
 Root      1 not converged, maximum delta is    0.223519965132502
 Root      2 not converged, maximum delta is    0.223519965132492
 Root      3 not converged, maximum delta is    0.057807048287093
 Root      4 not converged, maximum delta is    0.057807048288690
 Root      5 not converged, maximum delta is    0.036085070282302
 Root      6 not converged, maximum delta is    0.036085070282465
 Root      7 has converged.
 Root      8 has converged.
 Root      9 has converged.
 Root     10 not converged, maximum delta is    0.224306887872391
 Root     11 not converged, maximum delta is    0.224306887872511
 Root     12 has converged.
 Excitation Energies [eV] at current iteration:
 Root      1 :    -3.356904792149574   Change is    0.000007827168050
 Root      2 :    -3.356904792149464   Change is    0.000007827168100
 Root      3 :    -0.384445421380800   Change is    0.000003596587041
 Root      4 :    -0.384445421374813   Change is    0.000003596584268
 Root      5 :     1.135654461072171   Change is   -0.000000000014484
 Root      6 :     1.135654461075500   Change is   -0.000000000013612
 Root      7 :     2.076648558850664   Change is   -0.000000000000089
 Root      8 :     2.983829729890155   Change is    0.000000000000089
 Root      9 :     3.362301658133720   Change is   -0.000000000000019
 Root     10 :     3.663483698466643   Change is    0.000000000000044
 Root     11 :     3.663483698466665   Change is    0.000000000000056
 Root     12 :     3.781870297568757   Change is    0.000000000000051
 Iteration     9 Dimension   178 NMult   172 NNew      6
 Root      1 not converged, maximum delta is    0.360349566742320
 Root      2 not converged, maximum delta is    0.360349566742311
 Root      3 has converged.
 Root      4 has converged.
 Root      5 not converged, maximum delta is    0.065008355794716
 Root      6 not converged, maximum delta is    0.065008355794973
 Root      7 has converged.
 Root      8 has converged.
 Root      9 has converged.
 New state     10 was old state     11
 Root     10 not converged, maximum delta is    0.313972709230758
 New state     11 was old state     10
 Root     11 not converged, maximum delta is    0.313972709230507
 Root     12 has converged.
 Excitation Energies [eV] at current iteration:
 Root      1 :    -3.356878435962869   Change is    0.000026356186705
 Root      2 :    -3.356878435962783   Change is    0.000026356186681
 Root      3 :    -0.384439019887256   Change is    0.000006401493544
 Root      4 :    -0.384439019884048   Change is    0.000006401490765
 Root      5 :     1.135654461071157   Change is   -0.000000000001014
 Root      6 :     1.135654461072750   Change is   -0.000000000002751
 Root      7 :     2.076648558850624   Change is   -0.000000000000040
 Root      8 :     2.983829729890266   Change is    0.000000000000110
 Root      9 :     3.362301658133817   Change is    0.000000000000098
 Root     10 :     3.663483698466553   Change is   -0.000000000000112
 Root     11 :     3.663483698466597   Change is   -0.000000000000045
 Root     12 :     3.781870297568779   Change is    0.000000000000022
 Iteration    10 Dimension   182 NMult   178 NNew      4
 DSYEVD-2 returned Info=         365 IAlg= 4 N=   182 NDim=   182 NE2=      182917 trying  DSYEV.
 Root      1 has converged.
 Root      2 has converged.
 Root      3 not converged, maximum delta is    0.198002875995167
 Root      4 not converged, maximum delta is    0.198002875995885
 Root      5 not converged, maximum delta is    0.169492264160483
 Root      6 not converged, maximum delta is    0.169492264160569
 Root      7 has converged.
 Root      8 has converged.
 Root      9 has converged.
 Root     10 not converged, maximum delta is    0.031006252124945
 Root     11 not converged, maximum delta is    0.031006252124829
 Root     12 has converged.
 Excitation Energies [eV] at current iteration:
 Root      1 :    -3.356834723150846   Change is    0.000043712812023
 Root      2 :    -3.356834723150577   Change is    0.000043712812206
 Root      3 :    -0.384439019887897   Change is   -0.000000000000642
 Root      4 :    -0.384439019885438   Change is   -0.000000000001390
 Root      5 :     1.135654461070795   Change is   -0.000000000000362
 Root      6 :     1.135654461071230   Change is   -0.000000000001520
 Root      7 :     2.076648558850743   Change is    0.000000000000119
 Root      8 :     2.983829729890155   Change is   -0.000000000000110
 Root      9 :     3.362301658133768   Change is   -0.000000000000049
 Root     10 :     3.663483698466710   Change is    0.000000000000157
 Root     11 :     3.663483698466733   Change is    0.000000000000135
 Root     12 :     3.781870297568757   Change is   -0.000000000000022
 Iteration    11 Dimension   184 NMult   182 NNew      2
 Root      1 not converged, maximum delta is    0.288525520293966
 Root      2 not converged, maximum delta is    0.288525520293954
 Root      3 has converged.
 Root      4 has converged.
 Root      5 not converged, maximum delta is    0.019338540900687
 Root      6 not converged, maximum delta is    0.019338540900274
 Root      7 has converged.
 Root      8 has converged.
 Root      9 has converged.
 New state     10 was old state     11
 Root     10 not converged, maximum delta is    0.091745694198464
 New state     11 was old state     10
 Root     11 not converged, maximum delta is    0.091745694198184
 Root     12 has converged.
 Excitation Energies [eV] at current iteration:
 Root      1 :    -3.356834723150834   Change is    0.000000000000012
 Root      2 :    -3.356834723150651   Change is   -0.000000000000073
 Root      3 :    -0.384436666883853   Change is    0.000002353004044
 Root      4 :    -0.384436666823122   Change is    0.000002353062316
 Root      5 :     1.135654461067031   Change is   -0.000000000003764
 Root      6 :     1.135654461070433   Change is   -0.000000000000796
 Root      7 :     2.076648558850624   Change is   -0.000000000000119
 Root      8 :     2.983829729890045   Change is   -0.000000000000110
 Root      9 :     3.362301658133793   Change is    0.000000000000025
 Root     10 :     3.663483698466620   Change is   -0.000000000000113
 Root     11 :     3.663483698466643   Change is   -0.000000000000067
 Root     12 :     3.781870297568670   Change is   -0.000000000000087
 Iteration    12 Dimension   188 NMult   184 NNew      4
 New state      1 was old state      2
 Root      1 not converged, maximum delta is    0.038416967050052
 New state      2 was old state      1
 Root      2 not converged, maximum delta is    0.038416967049915
 Root      3 not converged, maximum delta is    0.313225434473163
 Root      4 not converged, maximum delta is    0.313225434552945
 New state      5 was old state      6
 Root      5 not converged, maximum delta is    0.317675438188170
 New state      6 was old state      5
 Root      6 not converged, maximum delta is    0.317675438188524
 Root      7 has converged.
 Root      8 has converged.
 Root      9 has converged.
 Root     10 not converged, maximum delta is    0.173573454233360
 Root     11 not converged, maximum delta is    0.173573454233425
 Root     12 has converged.
 Excitation Energies [eV] at current iteration:
 Root      1 :    -3.356804458172304   Change is    0.000030264978347
 Root      2 :    -3.356804458171251   Change is    0.000030264979584
 Root      3 :    -0.384436666889626   Change is   -0.000000000005774
 Root      4 :    -0.384436666823764   Change is   -0.000000000000642
 Root      5 :     1.135654461067393   Change is   -0.000000000003040
 Root      6 :     1.135654461067465   Change is    0.000000000000434
 Root      7 :     2.076648558850783   Change is    0.000000000000159
 Root      8 :     2.983829729890017   Change is   -0.000000000000028
 Root      9 :     3.362301658133866   Change is    0.000000000000073
 Root     10 :     3.663483698466597   Change is   -0.000000000000023
 Root     11 :     3.663483698466665   Change is    0.000000000000022
 Root     12 :     3.781870297568692   Change is    0.000000000000022
 Iteration    13 Dimension   196 NMult   188 NNew      8
 New state      1 was old state      2
 Root      1 not converged, maximum delta is    0.060159242834403
 New state      2 was old state      1
 Root      2 not converged, maximum delta is    0.060159242834348
 Root      3 has converged.
 Root      4 has converged.
 Root      5 not converged, maximum delta is    0.008675522849282
 Root      6 not converged, maximum delta is    0.008675522849561
 Root      7 has converged.
 Root      8 has converged.
 Root      9 has converged.
 Root     10 not converged, maximum delta is    0.083751644179096
 Root     11 not converged, maximum delta is    0.083751644179096
 Root     12 has converged.
 Excitation Energies [eV] at current iteration:
 Root      1 :    -3.356802382524865   Change is    0.000002075646386
 Root      2 :    -3.356802382524546   Change is    0.000002075647757
 Root      3 :    -0.384436622141267   Change is    0.000000044748360
 Root      4 :    -0.384436622026008   Change is    0.000000044797756
 Root      5 :     1.135654461036990   Change is   -0.000000000030403
 Root      6 :     1.135654461037062   Change is   -0.000000000030403
 Root      7 :     2.076648558850901   Change is    0.000000000000119
 Root      8 :     2.983829729890155   Change is    0.000000000000138
 Root      9 :     3.362301658133768   Change is   -0.000000000000098
 Root     10 :     3.663483698466576   Change is   -0.000000000000022
 Root     11 :     3.663483698466597   Change is   -0.000000000000067
 Root     12 :     3.781870297568605   Change is   -0.000000000000087
 Iteration    14 Dimension   200 NMult   196 NNew      4
 New state      1 was old state      2
 Root      1 not converged, maximum delta is    0.184755677577737
 New state      2 was old state      1
 Root      2 not converged, maximum delta is    0.184755677577936
 Root      3 not converged, maximum delta is    0.214219623235518
 Root      4 not converged, maximum delta is    0.214219623345059
 New state      5 was old state      6
 Root      5 not converged, maximum delta is    0.100368262582313
 New state      6 was old state      5
 Root      6 not converged, maximum delta is    0.100368262579962
 Root      7 has converged.
 Root      8 has converged.
 Root      9 has converged.
 Root     10 has converged.
 Root     11 has converged.
 Root     12 has converged.
 Excitation Energies [eV] at current iteration:
 Root      1 :    -3.356789001113679   Change is    0.000013381410867
 Root      2 :    -3.356789001112198   Change is    0.000013381412666
 Root      3 :    -0.384436622138059   Change is    0.000000000003208
 Root      4 :    -0.384436622022693   Change is    0.000000000003314
 Root      5 :     1.135654461037424   Change is    0.000000000000362
 Root      6 :     1.135654461037569   Change is    0.000000000000579
 Root      7 :     2.076648558850783   Change is   -0.000000000000119
 Root      8 :     2.983829729890128   Change is   -0.000000000000028
 Root      9 :     3.362301658133842   Change is    0.000000000000074
 Root     10 :     3.663483698466553   Change is   -0.000000000000023
 Root     11 :     3.663483698466597   Change is    0.000000000000000
 Root     12 :     3.781870297568757   Change is    0.000000000000152
 Davidson failed to converge within maximum sub-space dimensions.
  Restart with updated initial guess:
 Iteration     1 Dimension    30 NMult   200 NNew     30
 New state      1 was old state      2
 New state      2 was old state      1
 New state      5 was old state      6
 New state      6 was old state      5
 New state     10 was old state     11
 New state     11 was old state     10
 Excitation Energies [eV] at current iteration:
 Root      1 :    -3.356786841250466
 Root      2 :    -3.356786841237842
 Root      3 :    -0.384436622141481
 Root      4 :    -0.384436622020662
 Root      5 :     1.135654461036556
 Root      6 :     1.135654461037062
 Root      7 :     2.076648558850624
 Root      8 :     2.983829729890072
 Root      9 :     3.361843681063676
 Root     10 :     3.663483698466597
 Root     11 :     3.663483698466620
 Root     12 :     3.781870297568822
 Iteration     2 Dimension    41 NMult   230 NNew     11
 Root      1 not converged, maximum delta is    0.006325557251238
 Root      2 not converged, maximum delta is    0.006325557290199
 Root      3 not converged, maximum delta is    0.133041450700822
 Root      4 not converged, maximum delta is    0.133041450762528
 New state      5 was old state      6
 Root      5 not converged, maximum delta is    0.092653377723442
 New state      6 was old state      5
 Root      6 not converged, maximum delta is    0.092653377724412
 Root      7 has converged.
 Root      8 has converged.
 Root      9 has converged.
 New state     10 was old state     11
 Root     10 not converged, maximum delta is    0.460402421392355
 New state     11 was old state     10
 Root     11 not converged, maximum delta is    0.460402421392251
 Root     12 has converged.
 Excitation Energies [eV] at current iteration:
 Root      1 :    -3.356783129189081   Change is    0.000003712061386
 Root      2 :    -3.356783127895166   Change is    0.000003713342676
 Root      3 :    -0.384436622140411   Change is    0.000000000001069
 Root      4 :    -0.384436622021410   Change is   -0.000000000000748
 Root      5 :     1.135654461036990   Change is   -0.000000000000072
 Root      6 :     1.135654461037207   Change is    0.000000000000651
 Root      7 :     2.076647919457430   Change is   -0.000000639393194
 Root      8 :     2.983829600522991   Change is   -0.000000129367082
 Root      9 :     3.362036461274579   Change is    0.000192780210902
 Root     10 :     3.663483698466620   Change is    0.000000000000000
 Root     11 :     3.663483698466665   Change is    0.000000000000067
 Root     12 :     3.781870296531237   Change is   -0.000000001037584
 Iteration     3 Dimension    45 NMult   241 NNew      4
 New state      1 was old state      2
 Root      1 not converged, maximum delta is    0.001094681224208
 New state      2 was old state      1
 Root      2 not converged, maximum delta is    0.001094681136829
 Root      3 not converged, maximum delta is    0.143181946124257
 Root      4 not converged, maximum delta is    0.143181946189536
 New state      5 was old state      6
 Root      5 not converged, maximum delta is    0.011022538425442
 New state      6 was old state      5
 Root      6 not converged, maximum delta is    0.011022538425942
 Root      7 has converged.
 Root      8 has converged.
 Root      9 has converged.
 New state     10 was old state     11
 Root     10 not converged, maximum delta is    0.465463148830192
 New state     11 was old state     10
 Root     11 not converged, maximum delta is    0.465463148830312
 Root     12 has converged.
 Excitation Energies [eV] at current iteration:
 Root      1 :    -3.356782944103634   Change is    0.000000183791531
 Root      2 :    -3.356782944081790   Change is    0.000000185107291
 Root      3 :    -0.384436622133996   Change is    0.000000000006415
 Root      4 :    -0.384436622027932   Change is   -0.000000000006522
 Root      5 :     1.135654461037062   Change is   -0.000000000000145
 Root      6 :     1.135654461037424   Change is    0.000000000000434
 Root      7 :     2.076647919457232   Change is   -0.000000000000198
 Root      8 :     2.983829600523046   Change is    0.000000000000055
 Root      9 :     3.362036461274554   Change is   -0.000000000000025
 Root     10 :     3.663483698466643   Change is   -0.000000000000022
 Root     11 :     3.663483698466687   Change is    0.000000000000067
 Root     12 :     3.781870296531129   Change is   -0.000000000000109
 Iteration     4 Dimension    47 NMult   245 NNew      2
 New state      1 was old state      2
 Root      1 not converged, maximum delta is    0.024376176494991
 New state      2 was old state      1
 Root      2 not converged, maximum delta is    0.024376177546211
 Root      3 not converged, maximum delta is    0.265997328860498
 Root      4 not converged, maximum delta is    0.265997328988321
 New state      5 was old state      6
 Root      5 not converged, maximum delta is    0.122992514059474
 New state      6 was old state      5
 Root      6 not converged, maximum delta is    0.122992514058262
 Root      7 has converged.
 Root      8 has converged.
 Root      9 has converged.
 New state     10 was old state     11
 Root     10 not converged, maximum delta is    0.080959152498540
 New state     11 was old state     10
 Root     11 not converged, maximum delta is    0.080959152498541
 Root     12 has converged.
 Excitation Energies [eV] at current iteration:
 Root      1 :    -3.356782229823368   Change is    0.000000714258421
 Root      2 :    -3.356782129011336   Change is    0.000000815092299
 Root      3 :    -0.384436622140091   Change is   -0.000000000006094
 Root      4 :    -0.384436622019058   Change is    0.000000000008874
 Root      5 :     1.135654461037062   Change is   -0.000000000000362
 Root      6 :     1.135654461037062   Change is    0.000000000000000
 Root      7 :     2.076647919457232   Change is    0.000000000000000
 Root      8 :     2.983829600523101   Change is    0.000000000000055
 Root      9 :     3.362036461274554   Change is    0.000000000000000
 Root     10 :     3.663483698466508   Change is   -0.000000000000180
 Root     11 :     3.663483698466576   Change is   -0.000000000000067
 Root     12 :     3.781870296531193   Change is    0.000000000000065
 Iteration     5 Dimension    51 NMult   247 NNew      4
 Root      1 has converged.
 Root      2 has converged.
 Root      3 not converged, maximum delta is    0.396891029160592
 Root      4 not converged, maximum delta is    0.396891029303763
 Root      5 not converged, maximum delta is    0.212915822265712
 Root      6 not converged, maximum delta is    0.212915822261298
 Root      7 has converged.
 Root      8 has converged.
 Root      9 has converged.
 Root     10 not converged, maximum delta is    0.231265254512240
 Root     11 not converged, maximum delta is    0.231265254512336
 Root     12 has converged.
 Excitation Energies [eV] at current iteration:
 Root      1 :    -3.356781539558461   Change is    0.000000690264907
 Root      2 :    -3.356780794134936   Change is    0.000001334876400
 Root      3 :    -0.384436622092405   Change is    0.000000000047686
 Root      4 :    -0.384436622032850   Change is   -0.000000000013793
 Root      5 :     1.135654461037207   Change is    0.000000000000145
 Root      6 :     1.135654461037207   Change is    0.000000000000145
 Root      7 :     2.076647919457351   Change is    0.000000000000119
 Root      8 :     2.983829600523074   Change is   -0.000000000000028
 Root      9 :     3.362036461274799   Change is    0.000000000000245
 Root     10 :     3.663483698466620   Change is    0.000000000000113
 Root     11 :     3.663483698466620   Change is    0.000000000000045
 Root     12 :     3.781870296531106   Change is   -0.000000000000087
 Convergence achieved on expansion vectors.
 ***********************************************************************
 Excited states from <AA,BB:AA,BB> singles matrix:
 ***********************************************************************
 
 ExtSpn:  IState=     1 X2= 1.018 Y2= 0.018 X2-Y2-1= 0.00D+00
          S2Grnd=  6.314 Ra= -0.247 Rb=  0.000 T= -0.003 S2Ext= -0.250 S2=  6.064
 ExtSpn:  IState=     2 X2= 1.018 Y2= 0.018 X2-Y2-1=-3.33D-16
          S2Grnd=  6.314 Ra= -0.247 Rb=  0.000 T= -0.003 S2Ext= -0.250 S2=  6.064
 ExtSpn:  IState=     3 X2= 1.905 Y2= 0.905 X2-Y2-1= 8.88D-16
          S2Grnd=  6.314 Ra= -0.213 Rb=  0.000 T= -0.024 S2Ext= -0.237 S2=  6.077
 ExtSpn:  IState=     4 X2= 1.905 Y2= 0.905 X2-Y2-1= 2.00D-15
          S2Grnd=  6.314 Ra= -0.213 Rb=  0.000 T= -0.024 S2Ext= -0.237 S2=  6.077
 ExtSpn:  IState=     5 X2= 1.869 Y2= 0.869 X2-Y2-1= 0.00D+00
          S2Grnd=  6.314 Ra=  0.988 Rb=  0.000 T=  0.040 S2Ext=  1.028 S2=  7.342
 ExtSpn:  IState=     6 X2= 1.869 Y2= 0.869 X2-Y2-1= 8.88D-16
          S2Grnd=  6.314 Ra=  0.988 Rb=  0.000 T=  0.040 S2Ext=  1.028 S2=  7.342
 ExtSpn:  IState=     7 X2= 1.009 Y2= 0.009 X2-Y2-1= 2.22D-16
          S2Grnd=  6.314 Ra=  0.048 Rb=  0.000 T=  0.010 S2Ext=  0.059 S2=  6.372
 ExtSpn:  IState=     8 X2= 1.039 Y2= 0.039 X2-Y2-1=-3.33D-16
          S2Grnd=  6.314 Ra= -0.188 Rb=  0.002 T= -0.054 S2Ext= -0.240 S2=  6.074
 ExtSpn:  IState=     9 X2= 1.015 Y2= 0.015 X2-Y2-1= 0.00D+00
          S2Grnd=  6.314 Ra= -0.246 Rb=  0.000 T=  0.000 S2Ext= -0.246 S2=  6.067
 ExtSpn:  IState=    10 X2= 1.031 Y2= 0.031 X2-Y2-1= 2.22D-16
          S2Grnd=  6.314 Ra=  0.353 Rb=  0.000 T=  0.006 S2Ext=  0.359 S2=  6.673
 ExtSpn:  IState=    11 X2= 1.031 Y2= 0.031 X2-Y2-1= 2.22D-16
          S2Grnd=  6.314 Ra=  0.353 Rb=  0.000 T=  0.006 S2Ext=  0.359 S2=  6.673
 ExtSpn:  IState=    12 X2= 1.029 Y2= 0.029 X2-Y2-1=-4.44D-16
          S2Grnd=  6.314 Ra=  0.353 Rb=  0.000 T=  0.000 S2Ext=  0.353 S2=  6.667
 1PDM for each excited state written to RWF  633
 Ground to excited state transition densities written to RWF  633
 Ground to excited state transition electric dipole moments (Au):
       state          X           Y           Z        Dip. S.      Osc.
         1         0.0000      0.0000      0.0000      0.0000      0.0000
         2         0.0000      0.0000      0.0000      0.0000      0.0000
         3        -0.5226     -1.7007      0.0000      3.1656     -0.0298
         4        -1.7007      0.5226      0.0000      3.1656     -0.0298
         5        -0.8046     -1.4711      0.0000      2.8116      0.0782
         6        -1.4711      0.8046      0.0000      2.8116      0.0782
         7         0.0000      0.0000      0.0000      0.0000      0.0000
         8         0.0000      0.0000     -2.5259      6.3804      0.4664
         9         0.0000      0.0000      0.0000      0.0000      0.0000
        10         0.0000      0.0000      0.0000      0.0000      0.0000
        11         0.0000      0.0000      0.0000      0.0000      0.0000
        12         0.0000      0.0000      0.0000      0.0000      0.0000
 Ground to excited state transition velocity dipole moments (Au):
       state          X           Y           Z        Dip. S.      Osc.
         1         0.0000      0.0000      0.0000      0.0000      0.0000
         2         0.0000      0.0000      0.0000      0.0000      0.0000
         3         0.0335      0.1089      0.0000      0.0130     -0.6126
         4         0.1089     -0.0335      0.0000      0.0130     -0.6126
         5        -0.0098     -0.0180      0.0000      0.0004      0.0067
         6        -0.0180      0.0098      0.0000      0.0004      0.0067
         7         0.0000      0.0000      0.0000      0.0000      0.0000
         8         0.0000      0.0000      0.0942      0.0089      0.0539
         9         0.0000      0.0000      0.0000      0.0000      0.0000
        10         0.0000      0.0000      0.0000      0.0000      0.0000
        11         0.0000      0.0000      0.0000      0.0000      0.0000
        12         0.0000      0.0000      0.0000      0.0000      0.0000
 Ground to excited state transition magnetic dipole moments (Au):
       state          X           Y           Z
         1         0.0004      0.0000      0.0000
         2         0.0000      0.0000      0.0000
         3         0.0000      0.0000      0.0000
         4         0.0000      0.0000      0.0000
         5         0.0000      0.0000      0.0000
         6         0.0000      0.0000      0.0000
         7        -0.0867     -1.5610      0.0000
         8         0.0000      0.0000      0.0000
         9         0.0000      0.0000      0.0000
        10         0.0000      0.0000      0.0000
        11         0.0000      0.0000      0.0000
        12         0.0000      0.0000      0.0000
 Ground to excited state transition velocity quadrupole moments (Au):
       state          XX          YY          ZZ          XY          XZ          YZ
         1         0.0000      0.0000      0.0000      0.0000      0.0000     -0.0001
         2         0.0000      0.0000      0.0001      0.0000      0.0000      0.0000
         3         0.0000      0.0000      0.0000      0.0000      0.0000      0.0000
         4         0.0000      0.0000      0.0000      0.0000      0.0000      0.0000
         5         0.0000      0.0000      0.0000      0.0000      0.0000      0.0000
         6         0.0000      0.0000      0.0000      0.0000      0.0000      0.0000
         7         0.0000      0.0000      0.0000      0.0000     -0.3200      0.0178
         8         0.0000      0.0000      0.0000      0.0000      0.0000      0.0000
         9         0.0000      0.0000      0.0000      0.0000      0.0000      0.0000
        10        -0.2991      0.2991      0.0000      0.0853      0.0000      0.0000
        11         0.0853     -0.0853      0.0000      0.2991      0.0000      0.0000
        12         0.0000      0.0000      0.0000      0.0000      0.0000      0.0000
 <0|del|b> * <b|rxdel|0> + <0|del|b> * <b|delr+rdel|0>
 Rotatory Strengths (R) in cgs (10**-40 erg-esu-cm/Gauss)
       state          XX          YY          ZZ    R(velocity)    E-M Angle
         1         0.0000      0.0000      0.0000      0.0000       90.00
         2         0.0000      0.0000      0.0000      0.0000       90.00
         3        -0.0008      0.0045      0.0066      0.0034       90.00
         4         0.0001      0.0063      0.0113      0.0059       90.00
         5         0.0000      0.0000      0.0000      0.0000       90.00
         6         0.0000      0.0000      0.0000      0.0000       90.00
         7         0.0000      0.0000      0.0000      0.0000       90.00
         8         0.0000      0.0000      0.0000      0.0000       90.00
         9         0.0000      0.0000      0.0000      0.0000       90.00
        10         0.0000      0.0000      0.0000      0.0000       90.00
        11         0.0000      0.0000      0.0000      0.0000       90.00
        12         0.0000      0.0000      0.0000      0.0000       90.00
 1/2[<0|r|b>*<b|rxdel|0> + (<0|rxdel|b>*<b|r|0>)*]
 Rotatory Strengths (R) in cgs (10**-40 erg-esu-cm/Gauss)
       state          XX          YY          ZZ     R(length)
         1         0.0000      0.0000      0.0000      0.0000
         2         0.0000      0.0000      0.0000      0.0000
         3        -0.0028      0.0005      0.0000     -0.0008
         4        -0.0038     -0.0001      0.0000     -0.0013
         5         0.0000      0.0000      0.0000      0.0000
         6         0.0000      0.0000      0.0000      0.0000
         7         0.0000      0.0000      0.0000      0.0000
         8         0.0000      0.0000      0.0000      0.0000
         9         0.0000      0.0000      0.0000      0.0000
        10         0.0000      0.0000      0.0000      0.0000
        11         0.0000      0.0000      0.0000      0.0000
        12         0.0000      0.0000      0.0000      0.0000
  1/2[<0|del|b>*<b|r|0> + (<0|r|b>*<b|del|0>)*] (Au)
       state          X           Y           Z        Dip. S.   Osc.(frdel)
         1         0.0000      0.0000      0.0000      0.0000      0.0000
         2         0.0000      0.0000      0.0000      0.0000      0.0000
         3        -0.0175     -0.1852      0.0000      0.2027      0.1351
         4        -0.1852     -0.0175      0.0000      0.2027      0.1351
         5         0.0079      0.0264      0.0000     -0.0344     -0.0229
         6         0.0264      0.0079      0.0000     -0.0344     -0.0229
         7         0.0000      0.0000      0.0000      0.0000      0.0000
         8         0.0000      0.0000     -0.2378      0.2378      0.1586
         9         0.0000      0.0000      0.0000      0.0000      0.0000
        10         0.0000      0.0000      0.0000      0.0000      0.0000
        11         0.0000      0.0000      0.0000      0.0000      0.0000
        12         0.0000      0.0000      0.0000      0.0000      0.0000

 Excitation energies and oscillator strengths:
 
 Excited state symmetry could not be determined.
 Excited State   1:  5.025-?Sym    -3.3568 eV    -369.35 nm  f=-0.0000  <S**2>=6.064
     21A -> 23A        0.17597
     21A -> 24A       -0.69026
     22A -> 23A       -0.69026
     22A -> 24A       -0.17597
 This state for optimization and/or second-order correction.
 Total Energy, E(TD-HF/TD-KS) =  -1293.22986586    
 Copying the excited state density for this state as the 1-particle RhoCI density.
 
 Excited state symmetry could not be determined.
 Excited State   2:  5.025-?Sym    -3.3568 eV    -369.35 nm  f=-0.0000  <S**2>=6.064
     21A -> 23A        0.69026
     21A -> 24A        0.17597
     22A -> 23A        0.17597
     22A -> 24A       -0.69026
 
 Excited state symmetry could not be determined.
 Excited State   3:  5.031-?Sym    -0.3844 eV    -3225.09 nm  f=-0.0298  <S**2>=6.077
     16A -> 26A        0.13106
     16A -> 27A        0.13672
     16A -> 29A        0.20243
     16A -> 30A        0.10747
     19A -> 23A        0.58826
     19A -> 24A        1.06476
     20A -> 26A        0.23281
     20A -> 27A        0.24286
     20A -> 29A        0.28983
     20A -> 30A        0.15386
     21A -> 25A       -0.12308
     22A -> 25A        0.24503
     22A -> 31A        0.11833
     21A <- 25A       -0.35104
     21A <- 31A       -0.23490
     22A <- 25A        0.69886
     22A <- 31A        0.46764
 
 Excited state symmetry could not be determined.
 Excited State   4:  5.031-?Sym    -0.3844 eV    -3225.09 nm  f=-0.0298  <S**2>=6.077
     16A -> 26A        0.13672
     16A -> 27A       -0.13106
     16A -> 29A        0.10747
     16A -> 30A       -0.20243
     19A -> 23A        1.06476
     19A -> 24A       -0.58826
     20A -> 26A        0.24286
     20A -> 27A       -0.23281
     20A -> 29A        0.15386
     20A -> 30A       -0.28983
     21A -> 25A        0.24503
     21A -> 31A        0.11833
     22A -> 25A        0.12308
     21A <- 25A        0.69886
     21A <- 31A        0.46764
     22A <- 25A        0.35104
     22A <- 31A        0.23490
 
 Excited state symmetry could not be determined.
 Excited State   5:  5.511-?Sym    1.1357 eV 1091.74 nm  f=0.0782  <S**2>=7.342
     19A -> 23A       -0.17932
     19A -> 24A       -0.20985
     21A -> 25A       -0.31149
     21A -> 31A       -0.15081
     22A -> 25A        1.15644
     22A -> 31A        0.55990
     16A <- 26A        0.10451
     16A <- 29A        0.16108
     19A <- 23A        0.54480
     19A <- 24A        0.63753
     20A <- 26A        0.18691
     20A <- 27A        0.12901
     20A <- 29A        0.20197
 
 Excited state symmetry could not be determined.
 Excited State   6:  5.511-?Sym    1.1357 eV 1091.74 nm  f=0.0782  <S**2>=7.342
     19A -> 23A       -0.20985
     19A -> 24A        0.17932
     21A -> 25A        1.15644
     21A -> 31A        0.55990
     22A -> 25A        0.31149
     22A -> 31A        0.15081
     16A <- 27A       -0.10451
     16A <- 30A       -0.16108
     19A <- 23A        0.63753
     19A <- 24A       -0.54480
     20A <- 26A        0.12901
     20A <- 27A       -0.18691
     20A <- 30A       -0.20197
 
 Excited state symmetry could not be determined.
 Excited State   7:  5.147-?Sym    2.0766 eV  597.04 nm  f=0.0000  <S**2>=6.372
     16A -> 23A        0.33041
     19A -> 26A        0.29582
     19A -> 27A       -0.17001
     19A -> 29A        0.23141
     19A -> 30A       -0.25821
     20A -> 23A        0.77760
     20A -> 24A       -0.20859
 
 Excited state symmetry could not be determined.
 Excited State   8:  5.029-?Sym    2.9838 eV  415.52 nm  f=0.4664  <S**2>=6.074
     19A -> 25A       -0.18869
     19A -> 31A       -0.16904
     21A -> 23A        0.38966
     21A -> 24A       -0.56888
     22A -> 23A        0.56888
     22A -> 24A        0.38966
     19A <- 31A       -0.10489
 
 Excited state symmetry could not be determined.
 Excited State   9:  5.027-?Sym    3.3620 eV  368.78 nm  f=0.0000  <S**2>=6.067
     21A -> 23A       -0.58731
     21A -> 24A       -0.40229
     22A -> 23A        0.40229
     22A -> 24A       -0.58731
 
 Excited state symmetry could not be determined.
 Excited State  10:  5.262-?Sym    3.6635 eV  338.43 nm  f=0.0000  <S**2>=6.673
     21A -> 26A       -0.60933
     21A -> 29A       -0.35251
     21A -> 30A        0.10858
     22A -> 27A        0.60933
     22A -> 29A        0.10858
     22A -> 30A        0.35251
 
 Excited state symmetry could not be determined.
 Excited State  11:  5.262-?Sym    3.6635 eV  338.43 nm  f=0.0000  <S**2>=6.673
     21A -> 27A        0.60933
     21A -> 29A        0.10858
     21A -> 30A        0.35251
     22A -> 26A        0.60933
     22A -> 29A        0.35251
     22A -> 30A       -0.10858
 
 Excited state symmetry could not be determined.
 Excited State  12:  5.260-?Sym    3.7819 eV  327.84 nm  f=0.0000  <S**2>=6.667
     21A -> 26A        0.57414
     21A -> 27A        0.20377
     21A -> 29A        0.36808
     22A -> 26A       -0.20377
     22A -> 27A        0.57414
     22A -> 30A        0.36808
 SavETr:  write IOETrn=   770 NScale= 10 NData=  16 NLR=1 NState=   12 LETran=     226.
 Leave Link  914 at Tue Sep 22 15:17:30 2015, MaxMem=    33554432 cpu:               1.3 elap:               1.3
 (Enter /home/gauss/gdvi01p/gdv/l601.exe)
 Copying SCF densities to generalized density rwf, IOpCl= 1 IROHF=0.

 **********************************************************************

            Population analysis using the SCF density.

 **********************************************************************

 Alpha  occ. eigenvalues -- -239.09038 -29.13049 -24.79356 -24.79356 -24.78787
 Alpha  occ. eigenvalues --  -20.52892 -20.52846  -4.08090  -2.77136  -2.77136
 Alpha  occ. eigenvalues --   -2.76733  -1.16138  -1.13107  -0.67076  -0.67076
 Alpha  occ. eigenvalues --   -0.66519  -0.66236  -0.66236  -0.50300  -0.48199
 Alpha  occ. eigenvalues --   -0.25512  -0.25512
 Alpha virt. eigenvalues --    0.01542   0.01542   0.02964   0.09352   0.09352
 Alpha virt. eigenvalues --    0.10733   0.21015   0.21015   0.23523   0.37684
 Alpha virt. eigenvalues --    1.30621   1.79141   1.79141   1.87017   1.88353
 Alpha virt. eigenvalues --    1.88353   1.93025   2.48779   2.53077   2.53077
 Alpha virt. eigenvalues --    2.62680   2.62680   3.04670   3.35002  19.12853
  Beta  occ. eigenvalues -- -239.08701 -29.00589 -24.67834 -24.67251 -24.67251
  Beta  occ. eigenvalues --  -20.59072 -20.59023  -3.67992  -2.30164  -2.28146
  Beta  occ. eigenvalues --   -2.28146  -1.39818  -1.38363  -0.66150  -0.66150
  Beta  occ. eigenvalues --   -0.66018  -0.66018  -0.64585  -0.60527
  Beta virt. eigenvalues --    0.03201   0.06651   0.06651   0.10866   0.19418
  Beta virt. eigenvalues --    0.23629   0.23629   0.33677   0.33677   0.33736
  Beta virt. eigenvalues --    0.33736   0.39320   0.43502   1.41941   1.63869
  Beta virt. eigenvalues --    1.63869   1.71513   1.71513   1.82024   1.90130
  Beta virt. eigenvalues --    2.51724   2.81280   2.81280   2.87332   2.87332
  Beta virt. eigenvalues --    2.96204   3.43558  19.17056
          Condensed to atoms (all electrons):
               1          2          3
     1  Mn  24.002625   0.216046   0.216046
     2  O    0.216046   8.066742  -0.000146
     3  O    0.216046  -0.000146   8.066742
          Atomic-Atomic Spin Densities.
               1          2          3
     1  Mn   5.835937   0.136317   0.136317
     2  O    0.136317  -1.690554  -0.000048
     3  O    0.136317  -0.000048  -1.690554
 Mulliken charges and spin densities:
               1          2
     1  Mn   0.565284   6.108571
     2  O   -0.282642  -1.554285
     3  O   -0.282642  -1.554285
 Sum of Mulliken charges =   0.00000   3.00000
 Mulliken charges and spin densities with hydrogens summed into heavy atoms:
               1          2
     1  Mn   0.565284   6.108571
     2  O   -0.282642  -1.554285
     3  O   -0.282642  -1.554285
 Electronic spatial extent (au):  <R**2>=            260.8600
 Charge=              0.0000 electrons
 Dipole moment (field-independent basis, Debye):
    X=              0.0000    Y=              0.0000    Z=              0.0000  Tot=              0.0000
 Quadrupole moment (field-independent basis, Debye-Ang):
   XX=            -27.0216   YY=            -27.0216   ZZ=            -36.4853
   XY=              0.0000   XZ=              0.0000   YZ=              0.0000
 Traceless Quadrupole moment (field-independent basis, Debye-Ang):
   XX=              3.1546   YY=              3.1546   ZZ=             -6.3091
   XY=              0.0000   XZ=              0.0000   YZ=              0.0000
 Octapole moment (field-independent basis, Debye-Ang**2):
  XXX=              0.0000  YYY=              0.0000  ZZZ=              0.0000  XYY=              0.0000
  XXY=              0.0000  XXZ=              0.0000  XZZ=              0.0000  YZZ=              0.0000
  YYZ=              0.0000  XYZ=              0.0000
 Hexadecapole moment (field-independent basis, Debye-Ang**3):
 XXXX=            -48.6247 YYYY=            -48.6247 ZZZZ=           -301.8590 XXXY=              0.0000
 XXXZ=              0.0000 YYYX=              0.0000 YYYZ=              0.0000 ZZZX=              0.0000
 ZZZY=              0.0000 XXYY=            -16.2082 XXZZ=            -48.6536 YYZZ=            -48.6536
 XXYZ=              0.0000 YYXZ=              0.0000 ZZXY=              0.0000
 N-N= 1.242059643306D+02 E-N=-3.320672804534D+03  KE= 1.289729129517D+03
 Leave Link  601 at Tue Sep 22 15:17:30 2015, MaxMem=    33554432 cpu:               0.0 elap:               0.0
 (Enter /home/gauss/gdvi01p/gdv/l9999.exe)
 Unable to Open any file for archive entry.
 1\1\GINC-MEDUSA\SP\UTD-Full\3-21G\Mn1O2(4)\DBWY\22-Sep-2015\0\\#p uhf/
 3-21G nosymm td(full,nstates=12,50-50)\\MnO2 3-21G\\0,4\Mn,0,0.,0.,0.\
 O,0,0.,0.,1.840528\O,0,0.,0.,-1.840528\\Version=ES64L-GDVRevI.01+\HF=-
 1293.1065064\MP2=-1293.4683242\PUHF=-1293.1621279\PMP2-0=-1293.5231559
 \S2=6.313674\S2-1=6.13241\S2A=8.274667\RMSD=6.234e-10\PG=D*H [O(Mn1),C
 *(O1.O1)]\\@
 The archive entry for this job was punched.


 COMMON SENSE IS NOT SO COMMON.   -- VOLTAIRE
 Job cpu time:       0 days  0 hours  0 minutes  3.3 seconds.
 Elapsed time:       0 days  0 hours  0 minutes  3.0 seconds.
 File lengths (MBytes):  RWF=     53 Int=      0 D2E=      0 Chk=      3 Scr=      1
 Normal termination of Gaussian DV at Tue Sep 22 15:17:30 2015.
