 Entering Gaussian System, Link 0=gdv
 Input=MnO2_cc-pVDZ_TD.com
 Output=MnO2_cc-pVDZ_TD.log
 Initial command:
 /home/gauss/gdvi01p/gdv/l1.exe "/home/GauScr/Gau-22287.inp" -scrdir="/home/GauScr/"
 Entering Link 1 = /home/gauss/gdvi01p/gdv/l1.exe PID=     22288.
  
 Copyright (c) 1988,1990,1992,1993,1995,1998,2003,2009,2014,
            Gaussian, Inc.  All Rights Reserved.
  
 This is the private, development version of
 the Gaussian(R) DV system of programs. It is based on
 the Gaussian(R) 09 system (copyright 2009, Gaussian, Inc.),
 the Gaussian(R) 03 system (copyright 2003, Gaussian, Inc.),
 the Gaussian(R) 98 system (copyright 1998, Gaussian, Inc.),
 the Gaussian(R) 94 system (copyright 1995, Gaussian, Inc.),
 the Gaussian 92(TM) system (copyright 1992, Gaussian, Inc.),
 the Gaussian 90(TM) system (copyright 1990, Gaussian, Inc.),
 the Gaussian 88(TM) system (copyright 1988, Gaussian, Inc.),
 the Gaussian 86(TM) system (copyright 1986, Carnegie Mellon
 University), and the Gaussian 82(TM) system (copyright 1983,
 Carnegie Mellon University). Gaussian is a federally registered
 trademark of Gaussian, Inc.
  
 This software contains proprietary and confidential information,
 including trade secrets, belonging to Gaussian, Inc.
  
 This software is provided under written license and may be
 used, copied, transmitted, or stored only in accord with that
 written license.
  
 The following legend is applicable only to US Government
 contracts under FAR:
  
                    RESTRICTED RIGHTS LEGEND
  
 Use, reproduction and disclosure by the US Government is
 subject to restrictions as set forth in subparagraphs (a)
 and (c) of the Commercial Computer Software - Restricted
 Rights clause in FAR 52.227-19.
  
 Gaussian, Inc.
 340 Quinnipiac St., Bldg. 40, Wallingford CT 06492
  
  
 ---------------------------------------------------------------
 Warning -- This program may not be used in any manner that
 competes with the business of Gaussian, Inc. or will provide
 assistance to any competitor of Gaussian, Inc.  The licensee
 of this program is prohibited from giving any competitor of
 Gaussian, Inc. access to this program.  By using this program,
 the user acknowledges that Gaussian, Inc. is engaged in the
 business of creating and licensing software in the field of
 computational chemistry and represents and warrants to the
 licensee that it is not a competitor of Gaussian, Inc. and that
 it will not use this program in any manner prohibited above.
 ---------------------------------------------------------------
  

 Cite this work as:
 Gaussian Development Version, Revision I.01+,
 M. J. Frisch, G. W. Trucks, H. B. Schlegel, G. E. Scuseria, 
 M. A. Robb, J. R. Cheeseman, G. Scalmani, V. Barone, B. Mennucci, 
 G. A. Petersson, H. Nakatsuji, M. Caricato, X. Li, H. P. Hratchian, 
 A. F. Izmaylov, J. Bloino, B. G. Janesko, F. Lipparini, G. Zheng, 
 J. L. Sonnenberg, W. Liang, M. Hada, M. Ehara, K. Toyota, R. Fukuda, 
 J. Hasegawa, M. Ishida, T. Nakajima, Y. Honda, O. Kitao, H. Nakai, 
 T. Vreven, J. A. Montgomery, Jr., J. E. Peralta, F. Ogliaro, 
 M. Bearpark, J. J. Heyd, E. Brothers, K. N. Kudin, V. N. Staroverov, 
 T. Keith, R. Kobayashi, J. Normand, K. Raghavachari, A. Rendell, 
 J. C. Burant, S. S. Iyengar, J. Tomasi, M. Cossi, N. Rega, 
 J. M. Millam, M. Klene, J. E. Knox, J. B. Cross, V. Bakken, 
 C. Adamo, J. Jaramillo, R. Gomperts, R. E. Stratmann, O. Yazyev, 
 A. J. Austin, R. Cammi, C. Pomelli, J. W. Ochterski, R. L. Martin, 
 K. Morokuma, V. G. Zakrzewski, G. A. Voth, P. Salvador, 
 J. J. Dannenberg, S. Dapprich, P. V. Parandekar, N. J. Mayhall, 
 A. D. Daniels, O. Farkas, J. B. Foresman, J. V. Ortiz, 
 J. Cioslowski, and D. J. Fox, Gaussian, Inc., Wallingford CT, 2010.
 
 *******************************************
 Gaussian DV:  ES64L-GDVRevI.01+ 11-Sep-2014
                 22-Sep-2015 
 *******************************************
 -----------------------------------------------
 #p uhf/cc-pVDZ nosymm td(full,nstates=12,50-50)
 -----------------------------------------------
 1/38=1,172=1/1;
 2/12=2,15=1,17=6,18=5,40=1/2;
 3/5=16,11=2,25=1,30=1,116=2/1,2,8,3;
 4//1;
 5/5=2,38=5/2;
 8/6=1,10=90,108=12/1,4;
 9/41=12,42=3,48=2,70=2/14;
 6/7=2,8=2,9=2,10=2/1;
 99/5=1,9=1/99;
 Leave Link    1 at Tue Sep 22 15:17:34 2015, MaxMem=           0 cpu:               0.0 elap:               0.0
 (Enter /home/gauss/gdvi01p/gdv/l101.exe)
 ------------
 MnO2 cc-pVDZ
 ------------
 Symbolic Z-matrix:
 Charge =  0 Multiplicity = 4
 Mn                    0.        0.        0. 
 O                     0.        0.        1.84053 
 O                     0.        0.       -1.84053 
 
 ITRead=  0  0  0
 MicOpt= -1 -1 -1
 NAtoms=      3 NQM=        3 NQMF=       0 NMMI=      0 NMMIF=      0
                NMic=       0 NMicF=      0.
                    Isotopes and Nuclear Properties:
 (Nuclear quadrupole moments (NQMom) in fm**2, nuclear magnetic moments (NMagM)
  in nuclear magnetons)

  Atom         1           2           3
 IAtWgt=          55          16          16
 AtmWgt=  54.9380463  15.9949146  15.9949146
 NucSpn=           5           0           0
 AtZEff=   0.0000000   0.0000000   0.0000000
 NQMom=   33.0000000   0.0000000   0.0000000
 NMagM=    3.4532000   0.0000000   0.0000000
 AtZNuc=  25.0000000   8.0000000   8.0000000
 Leave Link  101 at Tue Sep 22 15:17:34 2015, MaxMem=    33554432 cpu:               0.1 elap:               0.1
 (Enter /home/gauss/gdvi01p/gdv/l202.exe)
                          Input orientation:                          
 ---------------------------------------------------------------------
 Center     Atomic      Atomic             Coordinates (Angstroms)
 Number     Number       Type             X           Y           Z
 ---------------------------------------------------------------------
      1         25           0        0.000000    0.000000    0.000000
      2          8           0        0.000000    0.000000    1.840528
      3          8           0        0.000000    0.000000   -1.840528
 ---------------------------------------------------------------------
                    Distance matrix (angstroms):
                    1          2          3
     1  Mn   0.000000
     2  O    1.840528   0.000000
     3  O    1.840528   3.681056   0.000000
 Symmetry turned off by external request.
 Stoichiometry    MnO2(4)
 Framework group  D*H[O(Mn),C*(O.O)]
 Deg. of freedom     1
 Full point group                 D*H     NOp   8
 Rotational constants (GHZ):      0.0000000      4.6635906      4.6635906
 Leave Link  202 at Tue Sep 22 15:17:34 2015, MaxMem=    33554432 cpu:               0.0 elap:               0.0
 (Enter /home/gauss/gdvi01p/gdv/l301.exe)
 Standard basis: CC-pVDZ (5D, 7F)
 Ernie: Thresh=  0.10000D-02 Tol=  0.10000D-05 Strict=F.
 Ernie:  69 primitive shells out of 229 were deleted.
    71 basis functions,   354 primitive gaussians,    79 cartesian basis functions
    22 alpha electrons       19 beta electrons
       nuclear repulsion energy       124.2059643306 Hartrees.
 IExCor=    0 DFT=F Ex=HF Corr=None ExCW=0 ScaHFX=  1.000000
 ScaDFX=  1.000000  1.000000  1.000000  1.000000 ScalE2=  1.000000  1.000000
 IRadAn=      0 IRanWt=     -1 IRanGd=            0 ICorTp=0 IEmpDi=  4
 NAtoms=    3 NActive=    3 NUniq=    3 SFac= 1.00D+00 NAtFMM=   60 NAOKFM=F Big=F
 Integral buffers will be    131072 words long.
 Raffenetti 2 integral format.
 Two-electron integral symmetry is turned off.
 Leave Link  301 at Tue Sep 22 15:17:34 2015, MaxMem=    33554432 cpu:               0.0 elap:               0.1
 (Enter /home/gauss/gdvi01p/gdv/l302.exe)
 NPDir=0 NMtPBC=     1 NCelOv=     1 NCel=       1 NClECP=     1 NCelD=      1
         NCelK=      1 NCelE2=     1 NClLst=     1 CellRange=     0.0.
 One-electron integrals computed using PRISM.
 One-electron integral symmetry used in STVInt
 NBasis=    71 RedAO= T EigKep=  1.11D-02  NBF=    71
 NBsUse=    71 1.00D-06 EigRej= -1.00D+00 NBFU=    71
 Leave Link  302 at Tue Sep 22 15:17:34 2015, MaxMem=    33554432 cpu:               0.1 elap:               0.1
 (Enter /home/gauss/gdvi01p/gdv/l308.exe)
 Leave Link  308 at Tue Sep 22 15:17:34 2015, MaxMem=    33554432 cpu:               0.0 elap:               0.0
 (Enter /home/gauss/gdvi01p/gdv/l303.exe)
 DipDrv:  MaxL=1.
 Leave Link  303 at Tue Sep 22 15:17:35 2015, MaxMem=    33554432 cpu:               0.0 elap:               0.0
 (Enter /home/gauss/gdvi01p/gdv/l401.exe)
 ExpMin= 2.96D-02 ExpMax= 3.96D+06 ExpMxC= 4.50D+03 IAcc=3 IRadAn=         5 AccDes= 0.00D+00
 Harris functional with IExCor=  205 and IRadAn=       5 diagonalized for initial guess.
 HarFok:  IExCor=  205 AccDes= 0.00D+00 IRadAn=         5 IDoV= 1 UseB2=F ITyADJ=14
 ICtDFT=  3500011 ScaDFX=  1.000000  1.000000  1.000000  1.000000
 FoFCou: FMM=F IPFlag=           0 FMFlag=      100000 FMFlg1=           0
         NFxFlg=           0 DoJE=T BraDBF=F KetDBF=T FulRan=T
         wScrn=  0.000000 ICntrl=       500 IOpCl=  0 I1Cent=   200000004 NGrid=           0
         NMat0=    1 NMatS0=      1 NMatT0=    0 NMatD0=    1 NMtDS0=    0 NMtDT0=    0
 Symmetry not used in FoFCou.
 Harris En= -1298.92760200917    
 JPrj=0 DoOrth=F DoCkMO=F.
 Initial guess <Sx>= 0.0000 <Sy>= 0.0000 <Sz>= 1.5000 <S**2>= 3.7500 S= 1.5000
 Leave Link  401 at Tue Sep 22 15:17:35 2015, MaxMem=    33554432 cpu:               0.5 elap:               0.5
 (Enter /home/gauss/gdvi01p/gdv/l502.exe)
 Keep R1 and R2 ints in memory in canonical form, NReq=9673094.
 FoFCou: FMM=F IPFlag=           0 FMFlag=           0 FMFlg1=           0
         NFxFlg=           0 DoJE=F BraDBF=F KetDBF=F FulRan=T
         wScrn=  0.000000 ICntrl=       600 IOpCl=  0 I1Cent=           0 NGrid=           0
         NMat0=    1 NMatS0=   2556 NMatT0=    0 NMatD0=    1 NMtDS0=    0 NMtDT0=    0
 Symmetry not used in FoFCou.
 Two-electron integral symmetry not used.
 UHF open shell SCF:
 Using DIIS extrapolation, IDIIS=  1040.
 NGot=    33554432 LenX=    27005136 LenY=    26998454
 Requested convergence on RMS density matrix=1.00D-08 within 128 cycles.
 Requested convergence on MAX density matrix=1.00D-06.
 Requested convergence on             energy=1.00D-06.
 No special actions if energy rises.

 Cycle   1  Pass 1  IDiag  1:
 E= -1297.99925625709    
 DIIS: error= 1.76D-01 at cycle   1 NSaved=   1.
 NSaved= 1 IEnMin= 1 EnMin= -1297.99925625709     IErMin= 1 ErrMin= 1.76D-01
 ErrMax= 1.76D-01  0.00D+00 EMaxC= 1.00D-01 BMatC= 6.36D+00 BMatP= 6.36D+00
 IDIUse=3 WtCom= 0.00D+00 WtEn= 1.00D+00
 Coeff-Com:  0.100D+01
 Coeff-En:   0.100D+01
 Coeff:      0.100D+01
 Gap=     0.355 Goal=   None    Shift=    0.000
 Gap=    -0.499 Goal=   None    Shift=    0.000
 GapD=   -0.499 DampG=0.250 DampE=0.125 DampFc=0.1250 IDamp=-1.
 Damping current iteration by 1.25D-01
 RMSDP=4.16D-02 MaxDP=8.15D-01              OVMax= 1.00D+00

 Cycle   2  Pass 1  IDiag  1:
 E= -1298.35619357146     Delta-E=       -0.356937314376 Rises=F Damp=T
 DIIS: error= 8.38D-02 at cycle   2 NSaved=   2.
 NSaved= 2 IEnMin= 2 EnMin= -1298.35619357146     IErMin= 2 ErrMin= 8.38D-02
 ErrMax= 8.38D-02  0.00D+00 EMaxC= 1.00D-01 BMatC= 1.62D+00 BMatP= 6.36D+00
 IDIUse=3 WtCom= 1.62D-01 WtEn= 8.38D-01
 Coeff-Com: -0.862D+00 0.186D+01
 Coeff-En:   0.000D+00 0.100D+01
 Coeff:     -0.140D+00 0.114D+01
 Gap=     0.171 Goal=   None    Shift=    0.000
 Gap=    -0.074 Goal=   None    Shift=    0.000
 RMSDP=1.45D-02 MaxDP=2.62D-01 DE=-3.57D-01 OVMax= 1.00D+00

 Cycle   3  Pass 1  IDiag  1:
 E= -1298.39911696563     Delta-E=       -0.042923394171 Rises=F Damp=F
 DIIS: error= 1.77D-01 at cycle   3 NSaved=   3.
 NSaved= 3 IEnMin= 3 EnMin= -1298.39911696563     IErMin= 2 ErrMin= 8.38D-02
 ErrMax= 1.77D-01  0.00D+00 EMaxC= 1.00D-01 BMatC= 4.69D+00 BMatP= 1.62D+00
 IDIUse=2 WtCom= 0.00D+00 WtEn= 1.00D+00
 EnCoef did   100 forward-backward iterations
 Coeff-En:   0.420D+00 0.714D-02 0.573D+00
 Coeff:      0.420D+00 0.714D-02 0.573D+00
 Gap=     0.303 Goal=   None    Shift=    0.000
 Gap=     0.588 Goal=   None    Shift=    0.000
 RMSDP=9.26D-03 MaxDP=2.22D-01 DE=-4.29D-02 OVMax= 3.48D-01

 Cycle   4  Pass 1  IDiag  1:
 E= -1299.15788881889     Delta-E=       -0.758771853259 Rises=F Damp=F
 DIIS: error= 4.63D-02 at cycle   4 NSaved=   4.
 NSaved= 4 IEnMin= 4 EnMin= -1299.15788881889     IErMin= 4 ErrMin= 4.63D-02
 ErrMax= 4.63D-02  0.00D+00 EMaxC= 1.00D-01 BMatC= 2.39D-01 BMatP= 1.62D+00
 IDIUse=3 WtCom= 5.37D-01 WtEn= 4.63D-01
 Coeff-Com: -0.425D+00 0.529D+00-0.116D-01 0.908D+00
 Coeff-En:   0.000D+00 0.000D+00 0.286D-01 0.971D+00
 Coeff:     -0.228D+00 0.284D+00 0.704D-02 0.937D+00
 Gap=     0.281 Goal=   None    Shift=    0.000
 Gap=     0.391 Goal=   None    Shift=    0.000
 RMSDP=3.34D-03 MaxDP=8.27D-02 DE=-7.59D-01 OVMax= 1.40D-01

 Cycle   5  Pass 1  IDiag  1:
 E= -1299.22310937208     Delta-E=       -0.065220553187 Rises=F Damp=F
 DIIS: error= 2.87D-02 at cycle   5 NSaved=   5.
 NSaved= 5 IEnMin= 5 EnMin= -1299.22310937208     IErMin= 5 ErrMin= 2.87D-02
 ErrMax= 2.87D-02  0.00D+00 EMaxC= 1.00D-01 BMatC= 5.76D-02 BMatP= 2.39D-01
 IDIUse=3 WtCom= 7.13D-01 WtEn= 2.87D-01
 Coeff-Com: -0.311D+00 0.417D+00-0.578D-01 0.526D+00 0.425D+00
 Coeff-En:   0.000D+00 0.000D+00 0.000D+00 0.000D+00 0.100D+01
 Coeff:     -0.222D+00 0.297D+00-0.412D-01 0.375D+00 0.590D+00
 Gap=     0.308 Goal=   None    Shift=    0.000
 Gap=     0.443 Goal=   None    Shift=    0.000
 RMSDP=2.25D-03 MaxDP=4.40D-02 DE=-6.52D-02 OVMax= 1.03D-01

 Cycle   6  Pass 1  IDiag  1:
 E= -1299.23459412743     Delta-E=       -0.011484755349 Rises=F Damp=F
 DIIS: error= 4.24D-02 at cycle   6 NSaved=   6.
 NSaved= 6 IEnMin= 6 EnMin= -1299.23459412743     IErMin= 5 ErrMin= 2.87D-02
 ErrMax= 4.24D-02  0.00D+00 EMaxC= 1.00D-01 BMatC= 1.09D-01 BMatP= 5.76D-02
 IDIUse=2 WtCom= 0.00D+00 WtEn= 1.00D+00
 Coeff-En:   0.000D+00 0.000D+00 0.000D+00 0.000D+00 0.184D+00 0.816D+00
 Coeff:      0.000D+00 0.000D+00 0.000D+00 0.000D+00 0.184D+00 0.816D+00
 Gap=     0.232 Goal=   None    Shift=    0.000
 Gap=     0.427 Goal=   None    Shift=    0.000
 RMSDP=3.69D-03 MaxDP=1.39D-01 DE=-1.15D-02 OVMax= 2.03D-01

 Cycle   7  Pass 1  IDiag  1:
 E= -1299.26670280236     Delta-E=       -0.032108674929 Rises=F Damp=F
 DIIS: error= 5.16D-02 at cycle   7 NSaved=   7.
 NSaved= 7 IEnMin= 7 EnMin= -1299.26670280236     IErMin= 5 ErrMin= 2.87D-02
 ErrMax= 5.16D-02  0.00D+00 EMaxC= 1.00D-01 BMatC= 2.42D-01 BMatP= 5.76D-02
 IDIUse=2 WtCom= 0.00D+00 WtEn= 1.00D+00
 Coeff-En:   0.000D+00 0.000D+00 0.000D+00 0.000D+00 0.000D+00 0.103D+00
 Coeff-En:   0.897D+00
 Coeff:      0.000D+00 0.000D+00 0.000D+00 0.000D+00 0.000D+00 0.103D+00
 Coeff:      0.897D+00
 Gap=     0.281 Goal=   None    Shift=    0.000
 Gap=     0.578 Goal=   None    Shift=    0.000
 RMSDP=5.25D-03 MaxDP=1.06D-01 DE=-3.21D-02 OVMax= 1.67D-01

 Cycle   8  Pass 1  IDiag  1:
 E= -1299.29817263024     Delta-E=       -0.031469827880 Rises=F Damp=F
 DIIS: error= 5.57D-02 at cycle   8 NSaved=   8.
 NSaved= 8 IEnMin= 8 EnMin= -1299.29817263024     IErMin= 5 ErrMin= 2.87D-02
 ErrMax= 5.57D-02  0.00D+00 EMaxC= 1.00D-01 BMatC= 2.43D-01 BMatP= 5.76D-02
 IDIUse=2 WtCom= 0.00D+00 WtEn= 1.00D+00
 Coeff-En:   0.000D+00 0.000D+00 0.000D+00 0.000D+00 0.000D+00 0.000D+00
 Coeff-En:   0.275D+00 0.725D+00
 Coeff:      0.000D+00 0.000D+00 0.000D+00 0.000D+00 0.000D+00 0.000D+00
 Coeff:      0.275D+00 0.725D+00
 Gap=     0.216 Goal=   None    Shift=    0.000
 Gap=     0.493 Goal=   None    Shift=    0.000
 RMSDP=4.28D-03 MaxDP=1.40D-01 DE=-3.15D-02 OVMax= 1.94D-01

 Cycle   9  Pass 1  IDiag  1:
 E= -1299.36071267933     Delta-E=       -0.062540049089 Rises=F Damp=F
 DIIS: error= 3.63D-02 at cycle   9 NSaved=   9.
 NSaved= 9 IEnMin= 9 EnMin= -1299.36071267933     IErMin= 5 ErrMin= 2.87D-02
 ErrMax= 3.63D-02  0.00D+00 EMaxC= 1.00D-01 BMatC= 1.59D-01 BMatP= 5.76D-02
 IDIUse=2 WtCom= 0.00D+00 WtEn= 1.00D+00
 Coeff-En:   0.000D+00 0.000D+00 0.000D+00 0.000D+00 0.000D+00 0.000D+00
 Coeff-En:   0.000D+00 0.000D+00 0.100D+01
 Coeff:      0.000D+00 0.000D+00 0.000D+00 0.000D+00 0.000D+00 0.000D+00
 Coeff:      0.000D+00 0.000D+00 0.100D+01
 Gap=     0.246 Goal=   None    Shift=    0.000
 Gap=     0.627 Goal=   None    Shift=    0.000
 RMSDP=4.55D-03 MaxDP=9.64D-02 DE=-6.25D-02 OVMax= 1.11D-01

 Cycle  10  Pass 1  IDiag  1:
 E= -1299.39027876762     Delta-E=       -0.029566088292 Rises=F Damp=F
 DIIS: error= 3.42D-02 at cycle  10 NSaved=  10.
 NSaved=10 IEnMin=10 EnMin= -1299.39027876762     IErMin= 5 ErrMin= 2.87D-02
 ErrMax= 3.42D-02  0.00D+00 EMaxC= 1.00D-01 BMatC= 1.13D-01 BMatP= 5.76D-02
 IDIUse=2 WtCom= 0.00D+00 WtEn= 1.00D+00
 Coeff-En:   0.000D+00 0.000D+00 0.000D+00 0.000D+00 0.000D+00 0.000D+00
 Coeff-En:   0.000D+00 0.000D+00 0.000D+00 0.100D+01
 Coeff:      0.000D+00 0.000D+00 0.000D+00 0.000D+00 0.000D+00 0.000D+00
 Coeff:      0.000D+00 0.000D+00 0.000D+00 0.100D+01
 Gap=     0.217 Goal=   None    Shift=    0.000
 Gap=     0.523 Goal=   None    Shift=    0.000
 RMSDP=3.88D-03 MaxDP=1.04D-01 DE=-2.96D-02 OVMax= 1.40D-01

 Cycle  11  Pass 1  IDiag  1:
 E= -1299.41116363388     Delta-E=       -0.020884866263 Rises=F Damp=F
 DIIS: error= 2.29D-02 at cycle  11 NSaved=  11.
 NSaved=11 IEnMin=11 EnMin= -1299.41116363388     IErMin=11 ErrMin= 2.29D-02
 ErrMax= 2.29D-02  0.00D+00 EMaxC= 1.00D-01 BMatC= 1.34D-01 BMatP= 5.76D-02
 IDIUse=2 WtCom= 0.00D+00 WtEn= 1.00D+00
 Coeff-En:   0.000D+00 0.000D+00 0.000D+00 0.000D+00 0.000D+00 0.000D+00
 Coeff-En:   0.000D+00 0.000D+00 0.000D+00 0.181D+00 0.819D+00
 Coeff:      0.000D+00 0.000D+00 0.000D+00 0.000D+00 0.000D+00 0.000D+00
 Coeff:      0.000D+00 0.000D+00 0.000D+00 0.181D+00 0.819D+00
 Gap=     0.231 Goal=   None    Shift=    0.000
 Gap=     0.619 Goal=   None    Shift=    0.000
 RMSDP=3.38D-03 MaxDP=7.21D-02 DE=-2.09D-02 OVMax= 5.73D-02

 Cycle  12  Pass 1  IDiag  1:
 E= -1299.43346900630     Delta-E=       -0.022305372420 Rises=F Damp=F
 DIIS: error= 1.59D-02 at cycle  12 NSaved=  12.
 NSaved=12 IEnMin=12 EnMin= -1299.43346900630     IErMin=12 ErrMin= 1.59D-02
 ErrMax= 1.59D-02  0.00D+00 EMaxC= 1.00D-01 BMatC= 3.16D-02 BMatP= 5.76D-02
 IDIUse=3 WtCom= 8.41D-01 WtEn= 1.59D-01
 Coeff-Com:  0.160D-01-0.105D-01-0.329D-01-0.113D+00 0.875D+00-0.919D+00
 Coeff-Com: -0.274D+00 0.186D+01-0.809D-01-0.356D+01 0.113D+00 0.313D+01
 Coeff-En:   0.000D+00 0.000D+00 0.000D+00 0.000D+00 0.000D+00 0.000D+00
 Coeff-En:   0.000D+00 0.000D+00 0.000D+00 0.000D+00 0.000D+00 0.100D+01
 Coeff:      0.135D-01-0.886D-02-0.277D-01-0.951D-01 0.736D+00-0.773D+00
 Coeff:     -0.230D+00 0.156D+01-0.680D-01-0.299D+01 0.951D-01 0.279D+01
 Gap=     0.222 Goal=   None    Shift=    0.000
 Gap=     0.605 Goal=   None    Shift=    0.000
 RMSDP=1.94D-03 MaxDP=5.01D-02 DE=-2.23D-02 OVMax= 8.94D-02

 Cycle  13  Pass 1  IDiag  1:
 E= -1299.44810395817     Delta-E=       -0.014634951872 Rises=F Damp=F
 DIIS: error= 5.03D-03 at cycle  13 NSaved=  13.
 NSaved=13 IEnMin=13 EnMin= -1299.44810395817     IErMin=13 ErrMin= 5.03D-03
 ErrMax= 5.03D-03  0.00D+00 EMaxC= 1.00D-01 BMatC= 3.47D-03 BMatP= 3.16D-02
 IDIUse=3 WtCom= 9.50D-01 WtEn= 5.03D-02
 Coeff-Com:  0.122D-01-0.107D-01-0.970D-02-0.154D-01 0.291D+00-0.341D+00
 Coeff-Com: -0.351D-02 0.448D+00-0.324D+00-0.744D+00 0.773D-01 0.581D+00
 Coeff-Com:  0.104D+01
 Coeff-En:   0.000D+00 0.000D+00 0.000D+00 0.000D+00 0.000D+00 0.000D+00
 Coeff-En:   0.000D+00 0.000D+00 0.000D+00 0.000D+00 0.000D+00 0.000D+00
 Coeff-En:   0.100D+01
 Coeff:      0.116D-01-0.102D-01-0.921D-02-0.147D-01 0.276D+00-0.324D+00
 Coeff:     -0.333D-02 0.425D+00-0.308D+00-0.707D+00 0.734D-01 0.551D+00
 Coeff:      0.104D+01
 Gap=     0.232 Goal=   None    Shift=    0.000
 Gap=     0.628 Goal=   None    Shift=    0.000
 RMSDP=1.14D-03 MaxDP=2.37D-02 DE=-1.46D-02 OVMax= 3.73D-02

 Cycle  14  Pass 1  IDiag  1:
 E= -1299.45072659290     Delta-E=       -0.002622634725 Rises=F Damp=F
 DIIS: error= 7.26D-04 at cycle  14 NSaved=  14.
 NSaved=14 IEnMin=14 EnMin= -1299.45072659290     IErMin=14 ErrMin= 7.26D-04
 ErrMax= 7.26D-04  0.00D+00 EMaxC= 1.00D-01 BMatC= 9.37D-05 BMatP= 3.47D-03
 IDIUse=3 WtCom= 9.93D-01 WtEn= 7.26D-03
 Coeff-Com: -0.150D-01 0.176D-01 0.338D-02 0.303D-01-0.372D+00 0.343D+00
 Coeff-Com:  0.354D+00-0.344D+00-0.345D+00 0.355D+00 0.151D+00-0.167D+00
 Coeff-Com: -0.175D+00 0.116D+01
 Coeff-En:   0.000D+00 0.000D+00 0.000D+00 0.000D+00 0.000D+00 0.000D+00
 Coeff-En:   0.000D+00 0.000D+00 0.000D+00 0.000D+00 0.000D+00 0.000D+00
 Coeff-En:   0.000D+00 0.100D+01
 Coeff:     -0.149D-01 0.175D-01 0.335D-02 0.301D-01-0.369D+00 0.340D+00
 Coeff:      0.351D+00-0.342D+00-0.343D+00 0.353D+00 0.150D+00-0.165D+00
 Coeff:     -0.174D+00 0.116D+01
 Gap=     0.232 Goal=   None    Shift=    0.000
 Gap=     0.631 Goal=   None    Shift=    0.000
 RMSDP=1.53D-04 MaxDP=3.71D-03 DE=-2.62D-03 OVMax= 5.49D-03

 Cycle  15  Pass 1  IDiag  1:
 E= -1299.45078847396     Delta-E=       -0.000061881064 Rises=F Damp=F
 DIIS: error= 1.26D-04 at cycle  15 NSaved=  15.
 NSaved=15 IEnMin=15 EnMin= -1299.45078847396     IErMin=15 ErrMin= 1.26D-04
 ErrMax= 1.26D-04  0.00D+00 EMaxC= 1.00D-01 BMatC= 4.31D-06 BMatP= 9.37D-05
 IDIUse=3 WtCom= 9.99D-01 WtEn= 1.26D-03
 Coeff-Com: -0.219D-02 0.202D-02-0.715D-03 0.113D-01 0.550D-01-0.854D-01
 Coeff-Com: -0.738D-01 0.105D+00 0.115D+00-0.125D+00-0.498D-01 0.529D-01
 Coeff-Com: -0.755D-01-0.539D-01 0.113D+01
 Coeff-En:   0.000D+00 0.000D+00 0.000D+00 0.000D+00 0.000D+00 0.000D+00
 Coeff-En:   0.000D+00 0.000D+00 0.000D+00 0.000D+00 0.000D+00 0.000D+00
 Coeff-En:   0.000D+00 0.000D+00 0.100D+01
 Coeff:     -0.219D-02 0.201D-02-0.714D-03 0.113D-01 0.549D-01-0.853D-01
 Coeff:     -0.737D-01 0.105D+00 0.115D+00-0.125D+00-0.497D-01 0.529D-01
 Coeff:     -0.754D-01-0.538D-01 0.113D+01
 Gap=     0.232 Goal=   None    Shift=    0.000
 Gap=     0.632 Goal=   None    Shift=    0.000
 RMSDP=4.20D-05 MaxDP=1.50D-03 DE=-6.19D-05 OVMax= 1.72D-03

 Cycle  16  Pass 1  IDiag  1:
 E= -1299.45079250347     Delta-E=       -0.000004029505 Rises=F Damp=F
 DIIS: error= 1.35D-04 at cycle  16 NSaved=  16.
 NSaved=16 IEnMin=16 EnMin= -1299.45079250347     IErMin=15 ErrMin= 1.26D-04
 ErrMax= 1.35D-04  0.00D+00 EMaxC= 1.00D-01 BMatC= 1.60D-06 BMatP= 4.31D-06
 IDIUse=3 WtCom= 9.99D-01 WtEn= 1.26D-03
 Coeff-Com: -0.467D-03 0.606D-03 0.162D-03-0.375D-02-0.256D-01 0.281D-01
 Coeff-Com:  0.283D-01-0.286D-01-0.374D-01 0.410D-01 0.186D-01-0.275D-01
 Coeff-Com:  0.122D-01-0.305D-01-0.356D+00 0.138D+01
 Coeff-En:   0.000D+00 0.000D+00 0.000D+00 0.000D+00 0.000D+00 0.000D+00
 Coeff-En:   0.000D+00 0.000D+00 0.000D+00 0.000D+00 0.000D+00 0.000D+00
 Coeff-En:   0.000D+00 0.000D+00 0.000D+00 0.100D+01
 Coeff:     -0.467D-03 0.606D-03 0.162D-03-0.375D-02-0.255D-01 0.280D-01
 Coeff:      0.282D-01-0.285D-01-0.373D-01 0.409D-01 0.186D-01-0.275D-01
 Coeff:      0.122D-01-0.304D-01-0.355D+00 0.138D+01
 Gap=     0.233 Goal=   None    Shift=    0.000
 Gap=     0.632 Goal=   None    Shift=    0.000
 RMSDP=3.70D-05 MaxDP=1.23D-03 DE=-4.03D-06 OVMax= 1.84D-03

 Cycle  17  Pass 1  IDiag  1:
 E= -1299.45079190166     Delta-E=        0.000000601812 Rises=F Damp=F
 DIIS: error= 1.02D-04 at cycle  17 NSaved=  17.
 NSaved=17 IEnMin=16 EnMin= -1299.45079250347     IErMin=17 ErrMin= 1.02D-04
 ErrMax= 1.02D-04  0.00D+00 EMaxC= 1.00D-01 BMatC= 1.03D-06 BMatP= 1.60D-06
 IDIUse=3 WtCom= 9.99D-01 WtEn= 1.02D-03
 Rare condition: small coef for last iteration:  0.000D+00
 Coeff-Com: -0.465D-04 0.643D-04 0.102D-03 0.768D-04-0.134D-02 0.416D-02
 Coeff-Com: -0.908D-03-0.110D-01 0.313D-02 0.205D-01-0.693D-02-0.170D-01
 Coeff-Com:  0.360D-01-0.456D-03-0.626D-01 0.122D-01 0.102D+01
 Coeff-En:   0.000D+00 0.000D+00 0.000D+00 0.000D+00 0.000D+00 0.000D+00
 Coeff-En:   0.000D+00 0.000D+00 0.000D+00 0.000D+00 0.000D+00 0.000D+00
 Coeff-En:   0.000D+00 0.000D+00 0.000D+00 0.000D+00 0.100D+01
 Coeff:     -0.465D-04 0.643D-04 0.102D-03 0.768D-04-0.134D-02 0.416D-02
 Coeff:     -0.908D-03-0.110D-01 0.313D-02 0.205D-01-0.693D-02-0.170D-01
 Coeff:      0.360D-01-0.456D-03-0.626D-01 0.122D-01 0.102D+01
 Gap=     0.232 Goal=   None    Shift=    0.000
 Gap=     0.632 Goal=   None    Shift=    0.000
 RMSDP=2.73D-05 MaxDP=6.54D-04 DE= 6.02D-07 OVMax= 1.08D-03

 Cycle  18  Pass 1  IDiag  1:
 E= -1299.45079317071     Delta-E=       -0.000001269053 Rises=F Damp=F
 DIIS: error= 1.30D-05 at cycle  18 NSaved=  18.
 NSaved=18 IEnMin=18 EnMin= -1299.45079317071     IErMin=18 ErrMin= 1.30D-05
 ErrMax= 1.30D-05  0.00D+00 EMaxC= 1.00D-01 BMatC= 3.16D-08 BMatP= 1.03D-06
 IDIUse=1 WtCom= 1.00D+00 WtEn= 0.00D+00
 Coeff-Com: -0.452D-05 0.689D-05-0.248D-04 0.966D-04 0.594D-03-0.129D-02
 Coeff-Com:  0.157D-03 0.930D-03-0.142D-02-0.637D-04 0.176D-02-0.866D-03
 Coeff-Com: -0.399D-02-0.251D-03 0.278D-01-0.798D-01-0.138D+00 0.119D+01
 Coeff:     -0.452D-05 0.689D-05-0.248D-04 0.966D-04 0.594D-03-0.129D-02
 Coeff:      0.157D-03 0.930D-03-0.142D-02-0.637D-04 0.176D-02-0.866D-03
 Coeff:     -0.399D-02-0.251D-03 0.278D-01-0.798D-01-0.138D+00 0.119D+01
 Gap=     0.233 Goal=   None    Shift=    0.000
 Gap=     0.632 Goal=   None    Shift=    0.000
 RMSDP=3.54D-06 MaxDP=1.15D-04 DE=-1.27D-06 OVMax= 1.55D-04

 Cycle  19  Pass 1  IDiag  1:
 E= -1299.45079317745     Delta-E=       -0.000000006740 Rises=F Damp=F
 DIIS: error= 7.94D-06 at cycle  19 NSaved=  19.
 NSaved=19 IEnMin=19 EnMin= -1299.45079317745     IErMin=19 ErrMin= 7.94D-06
 ErrMax= 7.94D-06  0.00D+00 EMaxC= 1.00D-01 BMatC= 1.11D-08 BMatP= 3.16D-08
 IDIUse=1 WtCom= 1.00D+00 WtEn= 0.00D+00
 Coeff-Com: -0.441D-05-0.226D-05 0.494D-05 0.134D-03 0.362D-03-0.660D-03
 Coeff-Com: -0.609D-03 0.722D-03 0.116D-02-0.969D-03-0.109D-02 0.609D-03
 Coeff-Com:  0.422D-02-0.771D-02-0.673D-03 0.225D-01-0.899D-02-0.481D+00
 Coeff-Com:  0.147D+01
 Coeff:     -0.441D-05-0.226D-05 0.494D-05 0.134D-03 0.362D-03-0.660D-03
 Coeff:     -0.609D-03 0.722D-03 0.116D-02-0.969D-03-0.109D-02 0.609D-03
 Coeff:      0.422D-02-0.771D-02-0.673D-03 0.225D-01-0.899D-02-0.481D+00
 Coeff:      0.147D+01
 Gap=     0.232 Goal=   None    Shift=    0.000
 Gap=     0.632 Goal=   None    Shift=    0.000
 RMSDP=1.99D-06 MaxDP=3.92D-05 DE=-6.74D-09 OVMax= 6.70D-05

 Cycle  20  Pass 1  IDiag  1:
 E= -1299.45079318380     Delta-E=       -0.000000006353 Rises=F Damp=F
 DIIS: error= 8.51D-07 at cycle  20 NSaved=  20.
 NSaved=20 IEnMin=20 EnMin= -1299.45079318380     IErMin=20 ErrMin= 8.51D-07
 ErrMax= 8.51D-07  0.00D+00 EMaxC= 1.00D-01 BMatC= 7.69D-11 BMatP= 1.11D-08
 IDIUse=1 WtCom= 1.00D+00 WtEn= 0.00D+00
 Coeff-Com: -0.351D-05 0.485D-05 0.393D-05-0.228D-04-0.821D-04 0.158D-03
 Coeff-Com: -0.229D-04-0.119D-03 0.129D-03 0.136D-03-0.614D-04-0.136D-03
 Coeff-Com: -0.610D-03 0.207D-02 0.650D-03-0.534D-02 0.235D-01 0.836D-02
 Coeff-Com: -0.344D+00 0.132D+01
 Coeff:     -0.351D-05 0.485D-05 0.393D-05-0.228D-04-0.821D-04 0.158D-03
 Coeff:     -0.229D-04-0.119D-03 0.129D-03 0.136D-03-0.614D-04-0.136D-03
 Coeff:     -0.610D-03 0.207D-02 0.650D-03-0.534D-02 0.235D-01 0.836D-02
 Coeff:     -0.344D+00 0.132D+01
 Gap=     0.232 Goal=   None    Shift=    0.000
 Gap=     0.632 Goal=   None    Shift=    0.000
 RMSDP=1.35D-07 MaxDP=4.44D-06 DE=-6.35D-09 OVMax= 5.99D-06

 Cycle  21  Pass 1  IDiag  1:
 E= -1299.45079318385     Delta-E=       -0.000000000045 Rises=F Damp=F
 DIIS: error= 4.54D-07 at cycle  21 NSaved=  20.
 NSaved=20 IEnMin=20 EnMin= -1299.45079318385     IErMin=20 ErrMin= 4.54D-07
 ErrMax= 4.54D-07  0.00D+00 EMaxC= 1.00D-01 BMatC= 3.17D-11 BMatP= 7.69D-11
 IDIUse=1 WtCom= 1.00D+00 WtEn= 0.00D+00
 Coeff-Com: -0.715D-06-0.364D-06 0.154D-04 0.233D-04-0.476D-04-0.185D-04
 Coeff-Com:  0.155D-04 0.890D-05 0.133D-04 0.194D-04-0.105D-04-0.441D-04
 Coeff-Com: -0.291D-03-0.187D-03 0.122D-02-0.126D-01 0.679D-02 0.154D+00
 Coeff-Com: -0.806D+00 0.166D+01
 Coeff:     -0.715D-06-0.364D-06 0.154D-04 0.233D-04-0.476D-04-0.185D-04
 Coeff:      0.155D-04 0.890D-05 0.133D-04 0.194D-04-0.105D-04-0.441D-04
 Coeff:     -0.291D-03-0.187D-03 0.122D-02-0.126D-01 0.679D-02 0.154D+00
 Coeff:     -0.806D+00 0.166D+01
 Gap=     0.232 Goal=   None    Shift=    0.000
 Gap=     0.632 Goal=   None    Shift=    0.000
 RMSDP=8.87D-08 MaxDP=1.82D-06 DE=-4.46D-11 OVMax= 1.74D-06

 Cycle  22  Pass 1  IDiag  1:
 E= -1299.45079318385     Delta-E=       -0.000000000004 Rises=F Damp=F
 DIIS: error= 1.99D-07 at cycle  22 NSaved=  20.
 NSaved=20 IEnMin=20 EnMin= -1299.45079318385     IErMin=20 ErrMin= 1.99D-07
 ErrMax= 1.99D-07  0.00D+00 EMaxC= 1.00D-01 BMatC= 5.75D-12 BMatP= 3.17D-11
 IDIUse=1 WtCom= 1.00D+00 WtEn= 0.00D+00
 Coeff-Com:  0.336D-06 0.231D-05-0.218D-05 0.493D-05-0.667D-05-0.127D-04
 Coeff-Com:  0.224D-04 0.949D-05-0.395D-04-0.434D-05 0.225D-03-0.284D-03
 Coeff-Com:  0.104D-04-0.602D-04 0.439D-02-0.121D-01-0.731D-02 0.108D+00
 Coeff-Com: -0.498D+00 0.141D+01
 Coeff:      0.336D-06 0.231D-05-0.218D-05 0.493D-05-0.667D-05-0.127D-04
 Coeff:      0.224D-04 0.949D-05-0.395D-04-0.434D-05 0.225D-03-0.284D-03
 Coeff:      0.104D-04-0.602D-04 0.439D-02-0.121D-01-0.731D-02 0.108D+00
 Coeff:     -0.498D+00 0.141D+01
 Gap=     0.232 Goal=   None    Shift=    0.000
 Gap=     0.632 Goal=   None    Shift=    0.000
 RMSDP=3.70D-08 MaxDP=7.77D-07 DE=-3.64D-12 OVMax= 1.18D-06

 Cycle  23  Pass 1  IDiag  1:
 E= -1299.45079318385     Delta-E=       -0.000000000002 Rises=F Damp=F
 DIIS: error= 6.17D-08 at cycle  23 NSaved=  20.
 NSaved=20 IEnMin=20 EnMin= -1299.45079318385     IErMin=20 ErrMin= 6.17D-08
 ErrMax= 6.17D-08  0.00D+00 EMaxC= 1.00D-01 BMatC= 3.25D-13 BMatP= 5.75D-12
 IDIUse=1 WtCom= 1.00D+00 WtEn= 0.00D+00
 Coeff-Com:  0.269D-06 0.104D-05-0.965D-06-0.654D-06-0.405D-06-0.993D-06
 Coeff-Com:  0.316D-05 0.396D-05-0.441D-05-0.420D-04 0.877D-04 0.162D-04
 Coeff-Com: -0.184D-03-0.182D-03 0.210D-02 0.303D-02-0.164D-01 0.920D-01
 Coeff-Com: -0.470D+00 0.139D+01
 Coeff:      0.269D-06 0.104D-05-0.965D-06-0.654D-06-0.405D-06-0.993D-06
 Coeff:      0.316D-05 0.396D-05-0.441D-05-0.420D-04 0.877D-04 0.162D-04
 Coeff:     -0.184D-03-0.182D-03 0.210D-02 0.303D-02-0.164D-01 0.920D-01
 Coeff:     -0.470D+00 0.139D+01
 Gap=     0.232 Goal=   None    Shift=    0.000
 Gap=     0.632 Goal=   None    Shift=    0.000
 RMSDP=1.58D-08 MaxDP=3.53D-07 DE=-1.59D-12 OVMax= 5.50D-07

 Cycle  24  Pass 1  IDiag  1:
 E= -1299.45079318385     Delta-E=       -0.000000000002 Rises=F Damp=F
 DIIS: error= 9.62D-09 at cycle  24 NSaved=  20.
 NSaved=20 IEnMin=20 EnMin= -1299.45079318385     IErMin=20 ErrMin= 9.62D-09
 ErrMax= 9.62D-09  0.00D+00 EMaxC= 1.00D-01 BMatC= 1.16D-14 BMatP= 3.25D-13
 IDIUse=1 WtCom= 1.00D+00 WtEn= 0.00D+00
 Large coefficients: NSaved= 20 BigCof=    0.00 CofMax=   10.00 Det=-9.65D-16
 Inversion failed.  Reducing to 19 matrices.
 Large coefficients: NSaved= 19 BigCof=    0.00 CofMax=   10.00 Det=-9.66D-16
 Inversion failed.  Reducing to 18 matrices.
 Large coefficients: NSaved= 18 BigCof=    0.00 CofMax=   10.00 Det=-9.80D-16
 Inversion failed.  Reducing to 17 matrices.
 Large coefficients: NSaved= 17 BigCof=    0.00 CofMax=   10.00 Det=-1.10D-15
 Inversion failed.  Reducing to 16 matrices.
 Large coefficients: NSaved= 16 BigCof=    0.00 CofMax=   10.00 Det=-1.13D-15
 Inversion failed.  Reducing to 15 matrices.
 Coeff-Com: -0.138D-06-0.184D-06 0.492D-06 0.518D-05-0.130D-04-0.564D-05
 Coeff-Com:  0.144D-04 0.301D-04-0.345D-04-0.102D-02 0.556D-03-0.272D-02
 Coeff-Com:  0.479D-01-0.265D+00 0.122D+01
 Coeff:     -0.138D-06-0.184D-06 0.492D-06 0.518D-05-0.130D-04-0.564D-05
 Coeff:      0.144D-04 0.301D-04-0.345D-04-0.102D-02 0.556D-03-0.272D-02
 Coeff:      0.479D-01-0.265D+00 0.122D+01
 Gap=     0.232 Goal=   None    Shift=    0.000
 DSYEVD-2 returned Info=         143 IAlg= 4 N=    71 NDim=    71 NE2=      380258 trying  DSYEV.
 Gap=     0.632 Goal=   None    Shift=    0.000
 RMSDP=1.04D-09 MaxDP=2.05D-08 DE=-2.27D-12 OVMax= 2.45D-08

 SCF Done:  E(UHF) =  -1299.45079318     A.U. after   24 cycles
            NFock= 24  Conv=0.10D-08     -V/T= 2.0001
 <Sx>= 0.0000 <Sy>= 0.0000 <Sz>= 1.5000 <S**2>= 6.1718 S= 2.0341
 <L.S>= 0.000000000000E+00
 KE= 1.299264443554D+03 PE=-3.337864518702D+03 EE= 6.149433176329D+02
 Annihilation of the first spin contaminant:
 S**2 before annihilation     6.1718,   after     7.7096
 Leave Link  502 at Tue Sep 22 15:17:39 2015, MaxMem=    33554432 cpu:               3.9 elap:               3.9
 (Enter /home/gauss/gdvi01p/gdv/l801.exe)
 Range of M.O.s used for correlation:     1    71
 NBasis=    71 NAE=    22 NBE=    19 NFC=     0 NFV=     0
 NROrb=     71 NOA=    22 NOB=    19 NVA=    49 NVB=    52
 Leave Link  801 at Tue Sep 22 15:17:39 2015, MaxMem=    33554432 cpu:               0.0 elap:               0.0
 (Enter /home/gauss/gdvi01p/gdv/l804.exe)
 Open-shell transformation, MDV=    33554432 ITran=3 ISComp=1.
 Unit  1 TFree=        308996 TCopy=        239306.
 Semi-Direct transformation.
 ModeAB=           2 MOrb=            22 LenV=      33077120
 LASXX=      1709554 LTotXX=     1709554 LenRXX=     1709554
 LTotAB=     1916552 MaxLAS=     4935920 LenRXY=     4935920
 NonZer=     5132732 LenScr=     8464896 LnRSAI=           0
 LnScr1=           0 LExtra=           0 Total=     15110370
 MaxDsk=          -1 SrtSym=           F ITran=            3
 DoSDTr:  NPSUse=  1
 JobTyp=1 Pass  1:  I=   1 to  22.
 (rs|ai) integrals will be sorted in core.
 Complete sort for first half transformation.
 First half transformation complete.
 Begin second half transformation for I=  10.
 Begin second half transformation for I=  20.
 Begin second half transformation for I=  10.
 Begin second half transformation for I=  20.
 Complete sort for second half transformation.
 Second half transformation complete.
 ModeAB=           2 MOrb=            19 LenV=      33077120
 LASXX=      1386544 LTotXX=     1386544 LenRXX=     4262840
 LTotAB=      232750 MaxLAS=     4262840 LenRXY=      232750
 NonZer=     4432814 LenScr=     7383040 LnRSAI=           0
 LnScr1=           0 LExtra=           0 Total=     11878630
 MaxDsk=          -1 SrtSym=           F ITran=            3
 DoSDTr:  NPSUse=  1
 JobTyp=2 Pass  1:  I=   1 to  19.
 (rs|ai) integrals will be sorted in core.
 Complete sort for first half transformation.
 First half transformation complete.
 Begin second half transformation for I=  10.
 Begin second half transformation for I=  10.
 Complete sort for second half transformation.
 Second half transformation complete.
 Spin components of T(2) and E(2):
     alpha-alpha T2 =       0.1287964622D+00 E2=     -0.1916779245D+00
     alpha-beta  T2 =       0.1057604636D+00 E2=     -0.4088467267D+00
     beta-beta   T2 =       0.1671891607D-01 E2=     -0.8090856369D-01
 ANorm=    0.1118604417D+01
 E2 =    -0.6814332148D+00 EUMP2 =    -0.13001322263987D+04
 (S**2,0)=  0.61718D+01           (S**2,1)=  0.59855D+01
 E(PUHF)=      -0.12995080680D+04        E(PMP2)=      -0.13001885497D+04
 Leave Link  804 at Tue Sep 22 15:17:59 2015, MaxMem=    33554432 cpu:              20.1 elap:              20.1
 (Enter /home/gauss/gdvi01p/gdv/l914.exe)
 UHF ground state
 Ignoring spin specification with unrestricted ground state.
 MDV=    33554432 DFT=F DoStab=F Mixed=F DoRPA=T DoScal=F NonHer=T
 Making orbital integer symmetry assigments:
 FoFJK:  IHMeth= 1 ICntrl=       0 DoSepK=F KAlg= 0 I1Cent=           0 FoldK=F
 IRaf=         0 NMat=       2 IRICut=       1 DoRegI=T DoRafI=F ISym2E= 0 IDoP0=0 IntGTp=1.
 FoFCou: FMM=F IPFlag=           0 FMFlag=      100000 FMFlg1=           0
         NFxFlg=           0 DoJE=F BraDBF=F KetDBF=F FulRan=T
         wScrn=  0.000000 ICntrl=         0 IOpCl=  1 I1Cent=           0 NGrid=           0
         NMat0=    2 NMatS0=      2 NMatT0=    0 NMatD0=    2 NMtDS0=    0 NMtDT0=    0
 Symmetry not used in FoFCou.
    48 initial guesses have been made.
 Convergence on wavefunction:    0.001000000000000
 Davidson Disk Diagonalization:  ConvIn= 1.00D-03 SkipCon=T Conv= 1.00D-03.
 Max sub-space:   200 roots to seek:    48 dimension of matrix:         2066
 Iteration     1 Dimension    48 NMult     0 NNew     48
 New state      1 was old state      2
 New state      2 was old state      1
 New state      3 was old state      5
 New state      4 was old state      6
 New state      5 was old state      3
 New state      6 was old state     14
 New state      7 was old state     13
 New state      8 was old state      4
 New state      9 was old state      7
 New state     10 was old state      9
 New state     11 was old state     10
 Excitation Energies [eV] at current iteration:
 Root      1 :    -3.015947068090568
 Root      2 :    -3.015947068090541
 Root      3 :     2.150657460548198
 Root      4 :     2.150657460548274
 Root      5 :     3.034533232359824
 Root      6 :     3.045251721978842
 Root      7 :     3.045251721979598
 Root      8 :     3.293779162962892
 Root      9 :     3.815255337324437
 Root     10 :     3.815255337324460
 Root     11 :     3.923360240787092
 Root     12 :     4.024914394973834
 Root     13 :     4.024914394974610
 Root     14 :     5.678939125681926
 Root     15 :     5.856006185960393
 Root     16 :     5.856006185960645
 Root     17 :     7.000860087600637
 Root     18 :     7.000860087600874
 Root     19 :     7.534872996952244
 Root     20 :     7.534872996952244
 Root     21 :     7.670109576261611
 Root     22 :     7.971055281856233
 Root     23 :     7.971055281856244
 Root     24 :     8.046193336164796
 Root     25 :     8.477678251133886
 Root     26 :     8.477678251133915
 Root     27 :     8.559208980073114
 Root     28 :     8.990236640090034
 Root     29 :     8.990236640090108
 Root     30 :     9.055424069030881
 Root     31 :     9.081759971367360
 Root     32 :     9.081759971367912
 Root     33 :     9.951783692595276
 Root     34 :    11.145958937421070
 Root     35 :    14.292731673341310
 Root     36 :    15.360102970216740
 Root     37 :    15.788381687075090
 Root     38 :    15.788381687075650
 Root     39 :    15.856033725651560
 Root     40 :    15.856033725652260
 Root     41 :    16.604142358126360
 Root     42 :    16.604142358126920
 Root     43 :    16.655461594766250
 Root     44 :    16.655461594766960
 Root     45 :    17.559565548262810
 Root     46 :    17.559565548262870
 Root     47 :    17.570840056202480
 Root     48 :    17.570840056202500
 Iteration     2 Dimension    72 NMult    48 NNew     24
 New state      1 was old state      2
 Root      1 not converged, maximum delta is    0.046891753260133
 New state      2 was old state      1
 Root      2 not converged, maximum delta is    0.046891753260146
 New state      3 was old state      4
 Root      3 not converged, maximum delta is    0.921768141555823
 New state      4 was old state      3
 Root      4 not converged, maximum delta is    0.921768141556781
 New state      5 was old state      6
 Root      5 not converged, maximum delta is    0.773446998581159
 New state      6 was old state      7
 Root      6 not converged, maximum delta is    0.773446998581767
 New state      7 was old state      8
 Root      7 not converged, maximum delta is    0.112123989236588
 New state      8 was old state     12
 Root      8 not converged, maximum delta is    0.305820170193451
 New state      9 was old state      5
 Root      9 not converged, maximum delta is    0.044113287637547
 New state     10 was old state      9
 Root     10 not converged, maximum delta is    0.275827639598710
 New state     11 was old state     10
 Root     11 not converged, maximum delta is    0.275827639600079
 New state     12 was old state     11
 Root     12 not converged, maximum delta is    0.014810331817430
 Excitation Energies [eV] at current iteration:
 Root      1 :    -3.051794020134199   Change is   -0.035846952043658
 Root      2 :    -3.051794020134132   Change is   -0.035846952043564
 Root      3 :    -0.723134550532119   Change is   -2.873792011080393
 Root      4 :    -0.723134550531892   Change is   -2.873792011080090
 Root      5 :     1.126531043783376   Change is   -1.918720678195466
 Root      6 :     1.126531043783376   Change is   -1.918720678196222
 Root      7 :     2.062611275888737   Change is   -1.231167887074156
 Root      8 :     2.216378485193076   Change is   -1.808535909780758
 Root      9 :     2.989629548652571   Change is   -0.044903683707253
 Root     10 :     3.687633759322047   Change is   -0.127621578002390
 Root     11 :     3.687633759322047   Change is   -0.127621578002412
 Root     12 :     3.872515342915832   Change is   -0.050844897871260
 Iteration     3 Dimension    96 NMult    72 NNew     24
 Root      1 not converged, maximum delta is    0.029422595866009
 Root      2 not converged, maximum delta is    0.029422595865976
 New state      3 was old state      4
 Root      3 not converged, maximum delta is    0.125976113451354
 New state      4 was old state      3
 Root      4 not converged, maximum delta is    0.125976113451319
 Root      5 not converged, maximum delta is    0.591930867200634
 Root      6 not converged, maximum delta is    0.591930867200635
 Root      7 not converged, maximum delta is    0.042293239694466
 Root      8 not converged, maximum delta is    0.052343400882222
 Root      9 not converged, maximum delta is    0.002662230496281
 New state     10 was old state     11
 Root     10 not converged, maximum delta is    0.297615996242251
 New state     11 was old state     10
 Root     11 not converged, maximum delta is    0.297615996241660
 Root     12 not converged, maximum delta is    0.001006560616151
 Excitation Energies [eV] at current iteration:
 Root      1 :    -3.058215539928377   Change is   -0.006421519794178
 Root      2 :    -3.058215539928310   Change is   -0.006421519794178
 Root      3 :    -0.765036744643215   Change is   -0.041902194111323
 Root      4 :    -0.765036744642785   Change is   -0.041902194110666
 Root      5 :     1.037357369631143   Change is   -0.089173674152233
 Root      6 :     1.037357369631698   Change is   -0.089173674151679
 Root      7 :     1.951375101283338   Change is   -0.111236174605398
 Root      8 :     2.076471343027468   Change is   -0.139907142165607
 Root      9 :     2.998713669458749   Change is    0.009084120806178
 Root     10 :     3.683510910557836   Change is   -0.004122848764211
 Root     11 :     3.683510910557903   Change is   -0.004122848764144
 Root     12 :     3.872206831179685   Change is   -0.000308511736146
 Iteration     4 Dimension   120 NMult    96 NNew     24
 DSYEVD-2 returned Info=         241 IAlg= 4 N=   120 NDim=   120 NE2=      277424 trying  DSYEV.
 DSYEVD-2 returned Info=        7501 IAlg= 4 N=   120 NDim=   120 NE2=      277424 trying  DSYEV.
 Root      1 not converged, maximum delta is    0.002245258797363
 Root      2 not converged, maximum delta is    0.002245258797352
 Root      3 not converged, maximum delta is    0.534161636486637
 Root      4 not converged, maximum delta is    0.534161636486844
 Root      5 not converged, maximum delta is    0.025668496323207
 Root      6 not converged, maximum delta is    0.025668496323203
 Root      7 not converged, maximum delta is    0.011175994193389
 Root      8 not converged, maximum delta is    0.007092824710850
 Root      9 not converged, maximum delta is    0.001873174843725
 New state     10 was old state     11
 Root     10 not converged, maximum delta is    0.438472516651290
 New state     11 was old state     10
 Root     11 not converged, maximum delta is    0.438472516650631
 Root     12 has converged.
 Excitation Energies [eV] at current iteration:
 Root      1 :    -3.057586871850623   Change is    0.000628668077754
 Root      2 :    -3.057586871850343   Change is    0.000628668077967
 Root      3 :    -0.766549519059444   Change is   -0.001512774416229
 Root      4 :    -0.766549519059286   Change is   -0.001512774416500
 Root      5 :     1.036106551713892   Change is   -0.001250817917251
 Root      6 :     1.036106551714838   Change is   -0.001250817916859
 Root      7 :     1.944036680586589   Change is   -0.007338420696749
 Root      8 :     2.072313622430971   Change is   -0.004157720596498
 Root      9 :     3.011233972953772   Change is    0.012520303495022
 Root     10 :     3.683304677267424   Change is   -0.000206233290480
 Root     11 :     3.683304677267441   Change is   -0.000206233290395
 Root     12 :     3.872200289859920   Change is   -0.000006541319765
 Iteration     5 Dimension   142 NMult   120 NNew     22
 New state      1 was old state      2
 Root      1 not converged, maximum delta is    0.344956829621226
 New state      2 was old state      1
 Root      2 not converged, maximum delta is    0.344956829621193
 New state      3 was old state      4
 Root      3 not converged, maximum delta is    0.478694505546668
 New state      4 was old state      3
 Root      4 not converged, maximum delta is    0.478694505546338
 Root      5 not converged, maximum delta is    0.044851473530861
 Root      6 not converged, maximum delta is    0.044851473530908
 Root      7 not converged, maximum delta is    0.002370646944517
 Root      8 not converged, maximum delta is    0.001442366911255
 Root      9 has converged.
 Root     10 not converged, maximum delta is    0.012620413443718
 Root     11 not converged, maximum delta is    0.012620413443728
 Root     12 has converged.
 Excitation Energies [eV] at current iteration:
 Root      1 :    -3.056968717342986   Change is    0.000618154507357
 Root      2 :    -3.056968717342972   Change is    0.000618154507650
 Root      3 :    -0.766485568408746   Change is    0.000063950650540
 Root      4 :    -0.766485568408531   Change is    0.000063950650913
 Root      5 :     1.036081273005010   Change is   -0.000025278708882
 Root      6 :     1.036081273005327   Change is   -0.000025278709511
 Root      7 :     1.943150558986772   Change is   -0.000886121599817
 Root      8 :     2.072111327924163   Change is   -0.000202294506808
 Root      9 :     3.014286746546321   Change is    0.003052773592549
 Root     10 :     3.683280708726199   Change is   -0.000023968541224
 Root     11 :     3.683280708726445   Change is   -0.000023968540996
 Root     12 :     3.872200289860315   Change is    0.000000000000395
 Iteration     6 Dimension   162 NMult   142 NNew     20
 New state      1 was old state      2
 Root      1 not converged, maximum delta is    0.009302565469073
 New state      2 was old state      1
 Root      2 not converged, maximum delta is    0.009302565469072
 Root      3 not converged, maximum delta is    0.096317622659343
 Root      4 not converged, maximum delta is    0.096317622659308
 Root      5 not converged, maximum delta is    0.443873304347475
 Root      6 not converged, maximum delta is    0.443873304347227
 Root      7 not converged, maximum delta is    0.001312366316637
 Root      8 has converged.
 Root      9 has converged.
 New state     10 was old state     11
 Root     10 not converged, maximum delta is    0.021209517811771
 New state     11 was old state     10
 Root     11 not converged, maximum delta is    0.021209517811800
 Root     12 has converged.
 Excitation Energies [eV] at current iteration:
 Root      1 :    -3.055465118694018   Change is    0.001503598648954
 Root      2 :    -3.055465118693911   Change is    0.001503598649076
 Root      3 :    -0.766369628385754   Change is    0.000115940022992
 Root      4 :    -0.766369628385432   Change is    0.000115940023099
 Root      5 :     1.036080622452229   Change is   -0.000000650552780
 Root      6 :     1.036080622452785   Change is   -0.000000650552542
 Root      7 :     1.943064183870028   Change is   -0.000086375116744
 Root      8 :     2.072100030026379   Change is   -0.000011297897784
 Root      9 :     3.014286746546293   Change is   -0.000000000000027
 Root     10 :     3.683280059358760   Change is   -0.000000649367685
 Root     11 :     3.683280059358961   Change is   -0.000000649367239
 Root     12 :     3.872200289860294   Change is   -0.000000000000021
 Iteration     7 Dimension   180 NMult   162 NNew     18
 DSYEVD-2 returned Info=         361 IAlg= 4 N=   180 NDim=   180 NE2=      184949 trying  DSYEV.
 DSYEVD-2 returned Info=         361 IAlg= 4 N=   180 NDim=   180 NE2=      184949 trying  DSYEV.
 New state      1 was old state      2
 Root      1 not converged, maximum delta is    0.134285554178372
 New state      2 was old state      1
 Root      2 not converged, maximum delta is    0.134285554178331
 New state      3 was old state      4
 Root      3 not converged, maximum delta is    0.801931178277504
 New state      4 was old state      3
 Root      4 not converged, maximum delta is    0.801931178277278
 Root      5 not converged, maximum delta is    0.211542471493227
 Root      6 not converged, maximum delta is    0.211542471492924
 Root      7 has converged.
 Root      8 has converged.
 Root      9 has converged.
 New state     10 was old state     11
 Root     10 not converged, maximum delta is    0.038486610884466
 New state     11 was old state     10
 Root     11 not converged, maximum delta is    0.038486610884369
 Root     12 has converged.
 Excitation Energies [eV] at current iteration:
 Root      1 :    -3.055435203633651   Change is    0.000029915060260
 Root      2 :    -3.055435203633345   Change is    0.000029915060674
 Root      3 :    -0.766131482135829   Change is    0.000238146249603
 Root      4 :    -0.766131482134914   Change is    0.000238146250840
 Root      5 :     1.036080612007563   Change is   -0.000000010444667
 Root      6 :     1.036080612008212   Change is   -0.000000010444573
 Root      7 :     1.943060889944228   Change is   -0.000003293925800
 Root      8 :     2.072100030026305   Change is   -0.000000000000073
 Root      9 :     3.014286746546194   Change is   -0.000000000000100
 Root     10 :     3.683280047110323   Change is   -0.000000012248638
 Root     11 :     3.683280047110510   Change is   -0.000000012248250
 Root     12 :     3.872200289860347   Change is    0.000000000000053
 Iteration     8 Dimension   188 NMult   180 NNew      8
 DSYEVD-2 returned Info=         377 IAlg= 4 N=   188 NDim=   188 NE2=      177079 trying  DSYEV.
 New state      1 was old state      2
 Root      1 not converged, maximum delta is    0.173547740367223
 New state      2 was old state      1
 Root      2 not converged, maximum delta is    0.173547740367279
 Root      3 not converged, maximum delta is    0.110064735220037
 Root      4 not converged, maximum delta is    0.110064735227730
 Root      5 not converged, maximum delta is    0.254155978805804
 Root      6 not converged, maximum delta is    0.254155978806501
 Root      7 has converged.
 Root      8 has converged.
 Root      9 has converged.
 New state     10 was old state     11
 Root     10 not converged, maximum delta is    0.189951627207290
 New state     11 was old state     10
 Root     11 not converged, maximum delta is    0.189951627207576
 Root     12 has converged.
 Excitation Energies [eV] at current iteration:
 Root      1 :    -3.055406722899372   Change is    0.000028480733973
 Root      2 :    -3.055406722899282   Change is    0.000028480734369
 Root      3 :    -0.765812370744101   Change is    0.000319111391729
 Root      4 :    -0.765812370729529   Change is    0.000319111405385
 Root      5 :     1.036080611939842   Change is   -0.000000000067721
 Root      6 :     1.036080611940313   Change is   -0.000000000067898
 Root      7 :     1.943060889944143   Change is   -0.000000000000085
 Root      8 :     2.072100030026171   Change is   -0.000000000000134
 Root      9 :     3.014286746546349   Change is    0.000000000000155
 Root     10 :     3.683280047110513   Change is    0.000000000000003
 Root     11 :     3.683280047110525   Change is    0.000000000000202
 Root     12 :     3.872200289860297   Change is   -0.000000000000049
 Iteration     9 Dimension   196 NMult   188 NNew      8
 New state      1 was old state      2
 Root      1 not converged, maximum delta is    0.108340876315821
 New state      2 was old state      1
 Root      2 not converged, maximum delta is    0.108340876315810
 Root      3 has converged.
 Root      4 has converged.
 Root      5 not converged, maximum delta is    0.394288791183845
 Root      6 not converged, maximum delta is    0.394288791182101
 Root      7 has converged.
 Root      8 has converged.
 Root      9 has converged.
 Root     10 not converged, maximum delta is    0.135737717186877
 Root     11 not converged, maximum delta is    0.135737717186901
 Root     12 has converged.
 Excitation Energies [eV] at current iteration:
 Root      1 :    -3.055375798103822   Change is    0.000030924795459
 Root      2 :    -3.055375798103782   Change is    0.000030924795590
 Root      3 :    -0.765652726823102   Change is    0.000159643920998
 Root      4 :    -0.765652726475065   Change is    0.000159644254464
 Root      5 :     1.036080611932390   Change is   -0.000000000007451
 Root      6 :     1.036080611934374   Change is   -0.000000000005939
 Root      7 :     1.943060889944199   Change is    0.000000000000055
 Root      8 :     2.072100030026577   Change is    0.000000000000406
 Root      9 :     3.014286746546348   Change is   -0.000000000000001
 Root     10 :     3.683280047110503   Change is   -0.000000000000010
 Root     11 :     3.683280047110525   Change is    0.000000000000000
 Root     12 :     3.872200289860357   Change is    0.000000000000060
 Iteration    10 Dimension   200 NMult   196 NNew      4
 DSYEVD-2 returned Info=         401 IAlg= 4 N=   200 NDim=   200 NE2=      166454 trying  DSYEV.
 New state      1 was old state      2
 Root      1 not converged, maximum delta is    0.238320604642283
 New state      2 was old state      1
 Root      2 not converged, maximum delta is    0.238320604641924
 Root      3 not converged, maximum delta is    0.035448472856713
 Root      4 not converged, maximum delta is    0.035448472882082
 Root      5 not converged, maximum delta is    0.366383366574649
 Root      6 not converged, maximum delta is    0.366383366573629
 Root      7 has converged.
 Root      8 has converged.
 Root      9 has converged.
 New state     10 was old state     11
 Root     10 not converged, maximum delta is    0.144802882902596
 New state     11 was old state     10
 Root     11 not converged, maximum delta is    0.144802882902177
 Root     12 has converged.
 Excitation Energies [eV] at current iteration:
 Root      1 :    -3.055256695848609   Change is    0.000119102255173
 Root      2 :    -3.055256695841772   Change is    0.000119102262051
 Root      3 :    -0.765652726823981   Change is   -0.000000000000879
 Root      4 :    -0.765652726475772   Change is   -0.000000000000707
 Root      5 :     1.036080611934330   Change is    0.000000000001940
 Root      6 :     1.036080611935065   Change is    0.000000000000691
 Root      7 :     1.943060889944139   Change is   -0.000000000000060
 Root      8 :     2.072100030026185   Change is   -0.000000000000392
 Root      9 :     3.014286746546341   Change is   -0.000000000000007
 Root     10 :     3.683280047110475   Change is   -0.000000000000050
 Root     11 :     3.683280047110539   Change is    0.000000000000036
 Root     12 :     3.872200289860324   Change is   -0.000000000000033
 Davidson failed to converge within maximum sub-space dimensions.
  Restart with updated initial guess:
 Iteration     1 Dimension    34 NMult   200 NNew     34
 New state     10 was old state     11
 New state     11 was old state     10
 Excitation Energies [eV] at current iteration:
 Root      1 :    -3.055240602297848
 Root      2 :    -3.055240602283264
 Root      3 :    -0.765644384305445
 Root      4 :    -0.765644383140316
 Root      5 :     1.036080611934374
 Root      6 :     1.036080611934930
 Root      7 :     1.943060889944283
 Root      8 :     2.072100030026061
 Root      9 :     3.010294091016692
 Root     10 :     3.683280046977548
 Root     11 :     3.683280046977593
 Root     12 :     3.872200289860294
 Iteration     2 Dimension    50 NMult   234 NNew     16
 Root      1 not converged, maximum delta is    0.005436391045555
 Root      2 not converged, maximum delta is    0.005436391042173
 Root      3 not converged, maximum delta is    0.005643284989814
 Root      4 not converged, maximum delta is    0.005643285792818
 Root      5 not converged, maximum delta is    0.641854957240723
 Root      6 not converged, maximum delta is    0.641854957239774
 Root      7 has converged.
 Root      8 has converged.
 Root      9 has converged.
 New state     10 was old state     11
 Root     10 not converged, maximum delta is    0.303707840156613
 New state     11 was old state     10
 Root     11 not converged, maximum delta is    0.303707840155994
 Root     12 has converged.
 Excitation Energies [eV] at current iteration:
 Root      1 :    -3.055084720378938   Change is    0.000155881918910
 Root      2 :    -3.055084720297742   Change is    0.000155881985522
 Root      3 :    -0.765626924796623   Change is    0.000017459508823
 Root      4 :    -0.765626922268047   Change is    0.000017460872269
 Root      5 :     1.036080611934295   Change is   -0.000000000000079
 Root      6 :     1.036080611934374   Change is   -0.000000000000555
 Root      7 :     1.943060788218735   Change is   -0.000000101725548
 Root      8 :     2.072099351177512   Change is   -0.000000678848550
 Root      9 :     3.015554811963473   Change is    0.005260720946781
 Root     10 :     3.683280046977548   Change is   -0.000000000000045
 Root     11 :     3.683280046977637   Change is    0.000000000000089
 Root     12 :     3.872200238195606   Change is   -0.000000051664688
 Iteration     3 Dimension    58 NMult   250 NNew      8
 Root      1 not converged, maximum delta is    0.004545605828283
 Root      2 not converged, maximum delta is    0.004545605853443
 Root      3 has converged.
 Root      4 has converged.
 Root      5 not converged, maximum delta is    0.067715130621921
 Root      6 not converged, maximum delta is    0.067715130617875
 Root      7 has converged.
 Root      8 has converged.
 Root      9 has converged.
 Root     10 not converged, maximum delta is    0.374592820801888
 Root     11 not converged, maximum delta is    0.374592820801212
 Root     12 has converged.
 Excitation Energies [eV] at current iteration:
 Root      1 :    -3.054991757788400   Change is    0.000092962590538
 Root      2 :    -3.054991757113314   Change is    0.000092963184428
 Root      3 :    -0.765612728774602   Change is    0.000014196022021
 Root      4 :    -0.765612724922584   Change is    0.000014197345462
 Root      5 :     1.036080611932152   Change is   -0.000000000002142
 Root      6 :     1.036080611932549   Change is   -0.000000000001825
 Root      7 :     1.943060788218819   Change is    0.000000000000085
 Root      8 :     2.072099351177273   Change is   -0.000000000000238
 Root      9 :     3.015554811963555   Change is    0.000000000000082
 Root     10 :     3.683280046977660   Change is    0.000000000000112
 Root     11 :     3.683280046977682   Change is    0.000000000000045
 Root     12 :     3.872200238194990   Change is   -0.000000000000616
 Iteration     4 Dimension    62 NMult   258 NNew      4
 Root      1 has converged.
 Root      2 has converged.
 Root      3 not converged, maximum delta is    0.005639435811901
 Root      4 not converged, maximum delta is    0.005639435854542
 New state      5 was old state      6
 Root      5 not converged, maximum delta is    0.003267879318762
 New state      6 was old state      5
 Root      6 not converged, maximum delta is    0.003267879318056
 Root      7 has converged.
 Root      8 has converged.
 Root      9 has converged.
 Root     10 not converged, maximum delta is    0.055289060719692
 Root     11 not converged, maximum delta is    0.055289060719590
 Root     12 has converged.
 Excitation Energies [eV] at current iteration:
 Root      1 :    -3.054988309976555   Change is    0.000003447811845
 Root      2 :    -3.054988308709222   Change is    0.000003448404092
 Root      3 :    -0.765612728774655   Change is   -0.000000000000054
 Root      4 :    -0.765612724922155   Change is    0.000000000000429
 Root      5 :     1.036080611932311   Change is   -0.000000000000238
 Root      6 :     1.036080611932470   Change is    0.000000000000317
 Root      7 :     1.943060788218819   Change is    0.000000000000000
 Root      8 :     2.072099351177551   Change is    0.000000000000278
 Root      9 :     3.015554811963582   Change is    0.000000000000027
 Root     10 :     3.683280046977615   Change is   -0.000000000000045
 Root     11 :     3.683280046977615   Change is   -0.000000000000066
 Root     12 :     3.872200238195053   Change is    0.000000000000063
 Iteration     5 Dimension    66 NMult   262 NNew      4
 DSYEVD-2 returned Info=         133 IAlg= 4 N=    66 NDim=    66 NE2=      504408 trying  DSYEV.
 Root      1 has converged.
 Root      2 has converged.
 Root      3 not converged, maximum delta is    0.002308214000143
 Root      4 not converged, maximum delta is    0.002308206771121
 New state      5 was old state      6
 Root      5 not converged, maximum delta is    0.305638469192063
 New state      6 was old state      5
 Root      6 not converged, maximum delta is    0.305638469169386
 Root      7 has converged.
 Root      8 has converged.
 Root      9 has converged.
 New state     10 was old state     11
 Root     10 not converged, maximum delta is    0.177971128360053
 New state     11 was old state     10
 Root     11 not converged, maximum delta is    0.177971128359859
 Root     12 has converged.
 Excitation Energies [eV] at current iteration:
 Root      1 :    -3.054988309976720   Change is   -0.000000000000165
 Root      2 :    -3.054988308709373   Change is   -0.000000000000151
 Root      3 :    -0.765609488463110   Change is    0.000003240311545
 Root      4 :    -0.765609471705957   Change is    0.000003253216197
 Root      5 :     1.036080611929946   Change is   -0.000000000002524
 Root      6 :     1.036080611932143   Change is   -0.000000000000168
 Root      7 :     1.943060788218691   Change is   -0.000000000000129
 Root      8 :     2.072099351177350   Change is   -0.000000000000201
 Root      9 :     3.015554811963492   Change is   -0.000000000000090
 Root     10 :     3.683280046977598   Change is   -0.000000000000017
 Root     11 :     3.683280046977632   Change is    0.000000000000017
 Root     12 :     3.872200238195010   Change is   -0.000000000000043
 Iteration     6 Dimension    70 NMult   266 NNew      4
 Root      1 has converged.
 Root      2 has converged.
 Root      3 not converged, maximum delta is    0.002961202099561
 Root      4 not converged, maximum delta is    0.002961653322545
 Root      5 not converged, maximum delta is    0.296872860892753
 Root      6 not converged, maximum delta is    0.296872860875767
 Root      7 has converged.
 Root      8 has converged.
 Root      9 has converged.
 New state     10 was old state     11
 Root     10 not converged, maximum delta is    0.364613137302225
 New state     11 was old state     10
 Root     11 not converged, maximum delta is    0.364613137301524
 Root     12 has converged.
 Excitation Energies [eV] at current iteration:
 Root      1 :    -3.054988309976609   Change is    0.000000000000111
 Root      2 :    -3.054988308709290   Change is    0.000000000000084
 Root      3 :    -0.765602202412081   Change is    0.000007286051029
 Root      4 :    -0.765601767384533   Change is    0.000007704321425
 Root      5 :     1.036080611931042   Change is    0.000000000001096
 Root      6 :     1.036080611931438   Change is   -0.000000000000705
 Root      7 :     1.943060788218650   Change is   -0.000000000000040
 Root      8 :     2.072099351177273   Change is   -0.000000000000077
 Root      9 :     3.015554811963528   Change is    0.000000000000036
 Root     10 :     3.683280046977570   Change is   -0.000000000000062
 Root     11 :     3.683280046977570   Change is   -0.000000000000028
 Root     12 :     3.872200238195011   Change is    0.000000000000001
 Iteration     7 Dimension    74 NMult   270 NNew      4
 Root      1 has converged.
 Root      2 has converged.
 Root      3 not converged, maximum delta is    0.007681396690624
 Root      4 not converged, maximum delta is    0.007680628550164
 Root      5 not converged, maximum delta is    0.001301619415113
 Root      6 not converged, maximum delta is    0.001301629994038
 Root      7 has converged.
 Root      8 has converged.
 Root      9 has converged.
 Root     10 not converged, maximum delta is    0.132034311815944
 Root     11 not converged, maximum delta is    0.132034311815690
 Root     12 has converged.
 Excitation Energies [eV] at current iteration:
 Root      1 :    -3.054988309976555   Change is    0.000000000000054
 Root      2 :    -3.054988308709249   Change is    0.000000000000040
 Root      3 :    -0.765600938174054   Change is    0.000001264238027
 Root      4 :    -0.765600924461114   Change is    0.000000842923418
 Root      5 :     1.036080611929693   Change is   -0.000000000001349
 Root      6 :     1.036080611930962   Change is   -0.000000000000476
 Root      7 :     1.943060788218777   Change is    0.000000000000127
 Root      8 :     2.072099351177630   Change is    0.000000000000357
 Root      9 :     3.015554811963637   Change is    0.000000000000109
 Root     10 :     3.683280046977660   Change is    0.000000000000090
 Root     11 :     3.683280046977660   Change is    0.000000000000090
 Root     12 :     3.872200238195075   Change is    0.000000000000063
 Iteration     8 Dimension    77 NMult   274 NNew      3
 Root      1 has converged.
 Root      2 has converged.
 Root      3 not converged, maximum delta is    0.003356248426147
 Root      4 not converged, maximum delta is    0.003355236095147
 Root      5 not converged, maximum delta is    0.001864166920637
 Root      6 not converged, maximum delta is    0.001864181346262
 Root      7 has converged.
 Root      8 has converged.
 No map to state      9
 New state     10 was old state      9
 Root     10 has converged.
 Root     11 not converged, maximum delta is    0.433760037015737
 New state     12 was old state     10
 Root     12 not converged, maximum delta is    0.433760037016430
 Excitation Energies [eV] at current iteration:
 Root      1 :    -3.054988309976636   Change is   -0.000000000000081
 Root      2 :    -3.054988308709343   Change is   -0.000000000000094
 Root      3 :    -0.765600231460816   Change is    0.000000706713239
 Root      4 :    -0.765598830753358   Change is    0.000002093707756
 Root      5 :     1.036080611928899   Change is   -0.000000000000793
 Root      6 :     1.036080611930407   Change is   -0.000000000000555
 Root      7 :     1.943060788218650   Change is   -0.000000000000127
 Root      8 :     2.072099351176996   Change is   -0.000000000000635
 Root      9 :     2.340600491050702
 Root     10 :     3.015554811963473   Change is   -0.000000000000164
 Root     11 :     3.683280046977570   Change is   -0.000000000000090
 Root     12 :     3.683280046977570   Change is   -0.000000000000090
 Iteration     9 Dimension    83 NMult   277 NNew      6
 DSYEVD-2 returned Info=         167 IAlg= 4 N=    83 NDim=    83 NE2=      401095 trying  DSYEV.
 Root      1 has converged.
 Root      2 has converged.
 New state      3 was old state      4
 Root      3 not converged, maximum delta is    0.007645547789969
 New state      4 was old state      3
 Root      4 not converged, maximum delta is    0.007639010693957
 Root      5 not converged, maximum delta is    0.120903042951030
 Root      6 not converged, maximum delta is    0.120903078513969
 Root      7 has converged.
 Root      8 has converged.
 Root      9 not converged, maximum delta is    0.068482099425710
 Root     10 has converged.
 New state     11 was old state     12
 Root     11 not converged, maximum delta is    0.066358805031677
 New state     12 was old state     11
 Root     12 not converged, maximum delta is    0.066358805031608
 Excitation Energies [eV] at current iteration:
 Root      1 :    -3.054988309976354   Change is    0.000000000000281
 Root      2 :    -3.054988308709261   Change is    0.000000000000082
 Root      3 :    -0.765597001523801   Change is    0.000001829229557
 Root      4 :    -0.765585003665154   Change is    0.000015227795662
 Root      5 :     1.036080611927978   Change is   -0.000000000000921
 Root      6 :     1.036080611929721   Change is   -0.000000000000686
 Root      7 :     1.943060788218682   Change is    0.000000000000032
 Root      8 :     2.072099351177313   Change is    0.000000000000317
 Root      9 :     2.085454078453016   Change is   -0.255146412597687
 Root     10 :     3.015554811963440   Change is   -0.000000000000033
 Root     11 :     3.683280046977555   Change is   -0.000000000000015
 Root     12 :     3.683280046977587   Change is    0.000000000000017
 Iteration    10 Dimension    89 NMult   283 NNew      6
 Root      1 has converged.
 Root      2 has converged.
 Root      3 has converged.
 Root      4 has converged.
 Root      5 not converged, maximum delta is    0.102184306203115
 Root      6 not converged, maximum delta is    0.102184321849724
 Root      7 has converged.
 Root      8 has converged.
 Root      9 not converged, maximum delta is    0.017530336171392
 Root     10 has converged.
 Root     11 not converged, maximum delta is    0.035430673321280
 Root     12 not converged, maximum delta is    0.035430673321192
 Excitation Energies [eV] at current iteration:
 Root      1 :    -3.054988309976460   Change is   -0.000000000000106
 Root      2 :    -3.054988308709236   Change is    0.000000000000025
 Root      3 :    -0.765596191474952   Change is    0.000000810048849
 Root      4 :    -0.765570058333395   Change is    0.000014945331759
 Root      5 :     1.036080611927154   Change is   -0.000000000000824
 Root      6 :     1.036080611928502   Change is   -0.000000000001219
 Root      7 :     1.943060788218735   Change is    0.000000000000053
 Root      8 :     2.072099351177353   Change is    0.000000000000040
 Root      9 :     2.073159155213002   Change is   -0.012294923240013
 Root     10 :     3.015554811963446   Change is    0.000000000000006
 Root     11 :     3.683280046977548   Change is   -0.000000000000007
 Root     12 :     3.683280046977593   Change is    0.000000000000005
 Iteration    11 Dimension    91 NMult   289 NNew      2
 Root      1 has converged.
 Root      2 has converged.
 Root      3 has converged.
 Root      4 has converged.
 New state      5 was old state      6
 Root      5 not converged, maximum delta is    0.015958494001022
 New state      6 was old state      5
 Root      6 not converged, maximum delta is    0.015958465443677
 Root      7 has converged.
 Root      8 has converged.
 Root      9 not converged, maximum delta is    0.006251072099174
 Root     10 has converged.
 Root     11 not converged, maximum delta is    0.001447062953191
 Root     12 not converged, maximum delta is    0.001447062953121
 Excitation Energies [eV] at current iteration:
 Root      1 :    -3.054988309976609   Change is   -0.000000000000148
 Root      2 :    -3.054988308709316   Change is   -0.000000000000080
 Root      3 :    -0.765596191441236   Change is    0.000000000033716
 Root      4 :    -0.765552436221948   Change is    0.000017622111447
 Root      5 :     1.036080611927233   Change is   -0.000000000001270
 Root      6 :     1.036080611927550   Change is    0.000000000000397
 Root      7 :     1.943060788218693   Change is   -0.000000000000042
 Root      8 :     2.072099351177194   Change is   -0.000000000000159
 Root      9 :     2.072173632226018   Change is   -0.000985522986985
 Root     10 :     3.015554811963364   Change is   -0.000000000000082
 Root     11 :     3.683280046977504   Change is   -0.000000000000045
 Root     12 :     3.683280046977615   Change is    0.000000000000023
 Iteration    12 Dimension    93 NMult   291 NNew      2
 Root      1 has converged.
 Root      2 has converged.
 Root      3 has converged.
 Root      4 has converged.
 Root      5 not converged, maximum delta is    0.006887478660951
 Root      6 not converged, maximum delta is    0.006887486365974
 Root      7 has converged.
 Root      8 has converged.
 Root      9 not converged, maximum delta is    0.001346943693561
 Root     10 has converged.
 Root     11 has converged.
 Root     12 has converged.
 Excitation Energies [eV] at current iteration:
 Root      1 :    -3.054988309976474   Change is    0.000000000000134
 Root      2 :    -3.054988308709236   Change is    0.000000000000080
 Root      3 :    -0.765596191125762   Change is    0.000000000315474
 Root      4 :    -0.765543189829189   Change is    0.000009246392759
 Root      5 :     1.036080611925249   Change is   -0.000000000001984
 Root      6 :     1.036080611927709   Change is    0.000000000000159
 Root      7 :     1.943060788218693   Change is    0.000000000000000
 Root      8 :     2.072099351177472   Change is    0.000000000000278
 Root      9 :     2.072103272759461   Change is   -0.000070359466557
 Root     10 :     3.015554811963555   Change is    0.000000000000191
 Root     11 :     3.683280046977637   Change is    0.000000000000134
 Root     12 :     3.683280046977660   Change is    0.000000000000045
 Iteration    13 Dimension    95 NMult   293 NNew      2
 Root      1 has converged.
 Root      2 has converged.
 Root      3 has converged.
 Root      4 has converged.
 New state      5 was old state      6
 Root      5 has converged.
 New state      6 was old state      5
 Root      6 has converged.
 Root      7 has converged.
 Root      8 has converged.
 Root      9 has converged.
 Root     10 has converged.
 Root     11 has converged.
 Root     12 has converged.
 Excitation Energies [eV] at current iteration:
 Root      1 :    -3.054988309976232   Change is    0.000000000000242
 Root      2 :    -3.054988308709303   Change is   -0.000000000000067
 Root      3 :    -0.765596190902793   Change is    0.000000000222969
 Root      4 :    -0.765521187939162   Change is    0.000022001890027
 Root      5 :     1.036080611927392   Change is   -0.000000000000317
 Root      6 :     1.036080611927630   Change is    0.000000000002380
 Root      7 :     1.943060788218650   Change is   -0.000000000000042
 Root      8 :     2.072099351177313   Change is   -0.000000000000159
 Root      9 :     2.072099442938995   Change is   -0.000003829820466
 Root     10 :     3.015554811963391   Change is   -0.000000000000164
 Root     11 :     3.683280046977548   Change is   -0.000000000000089
 Root     12 :     3.683280046977570   Change is   -0.000000000000090
 Convergence achieved on expansion vectors.
 ***********************************************************************
 Excited states from <AA,BB:AA,BB> singles matrix:
 ***********************************************************************
 
 ExtSpn:  IState=     1 X2= 1.095 Y2= 0.095 X2-Y2-1= 3.11D-15
          S2Grnd=  6.172 Ra= -0.150 Rb=  0.000 T= -0.003 S2Ext= -0.153 S2=  6.019
 ExtSpn:  IState=     2 X2= 1.095 Y2= 0.095 X2-Y2-1= 1.11D-15
          S2Grnd=  6.172 Ra= -0.150 Rb=  0.000 T= -0.003 S2Ext= -0.153 S2=  6.019
 ExtSpn:  IState=     3 X2= 1.771 Y2= 0.771 X2-Y2-1=-1.11D-16
          S2Grnd=  6.172 Ra= -0.109 Rb=  0.000 T= -0.012 S2Ext= -0.121 S2=  6.051
 ExtSpn:  IState=     4 X2= 1.771 Y2= 0.771 X2-Y2-1= 1.33D-15
          S2Grnd=  6.172 Ra= -0.109 Rb=  0.000 T= -0.011 S2Ext= -0.120 S2=  6.052
 ExtSpn:  IState=     5 X2= 1.913 Y2= 0.913 X2-Y2-1= 1.78D-15
          S2Grnd=  6.172 Ra=  0.950 Rb=  0.000 T=  0.033 S2Ext=  0.983 S2=  7.155
 ExtSpn:  IState=     6 X2= 1.913 Y2= 0.913 X2-Y2-1= 2.22D-16
          S2Grnd=  6.172 Ra=  0.950 Rb=  0.000 T=  0.033 S2Ext=  0.983 S2=  7.155
 ExtSpn:  IState=     7 X2= 1.046 Y2= 0.046 X2-Y2-1= 1.33D-15
          S2Grnd=  6.172 Ra= -0.092 Rb=  0.002 T= -0.056 S2Ext= -0.146 S2=  6.026
 ExtSpn:  IState=     8 X2= 1.009 Y2= 0.009 X2-Y2-1=-6.66D-16
          S2Grnd=  6.172 Ra=  0.012 Rb=  0.000 T=  0.011 S2Ext=  0.023 S2=  6.195
 ExtSpn:  IState=     9 X2= 1.009 Y2= 0.009 X2-Y2-1= 8.88D-16
          S2Grnd=  6.172 Ra=  0.012 Rb=  0.000 T=  0.011 S2Ext=  0.023 S2=  6.195
 ExtSpn:  IState=    10 X2= 1.081 Y2= 0.081 X2-Y2-1= 0.00D+00
          S2Grnd=  6.172 Ra= -0.121 Rb=  0.000 T=  0.000 S2Ext= -0.121 S2=  6.051
 ExtSpn:  IState=    11 X2= 1.032 Y2= 0.032 X2-Y2-1= 2.22D-16
          S2Grnd=  6.172 Ra=  0.429 Rb=  0.000 T=  0.009 S2Ext=  0.439 S2=  6.610
 ExtSpn:  IState=    12 X2= 1.032 Y2= 0.032 X2-Y2-1= 6.66D-16
          S2Grnd=  6.172 Ra=  0.429 Rb=  0.000 T=  0.009 S2Ext=  0.439 S2=  6.610
 1PDM for each excited state written to RWF  633
 Ground to excited state transition densities written to RWF  633
 Ground to excited state transition electric dipole moments (Au):
       state          X           Y           Z        Dip. S.      Osc.
         1         0.0000      0.0000      0.0000      0.0000      0.0000
         2         0.0000      0.0000      0.0000      0.0000      0.0000
         3        -0.4699      1.5620      0.0000      2.6608     -0.0499
         4        -1.5620     -0.4699      0.0000      2.6605     -0.0499
         5        -0.3555      1.2002      0.0000      1.5668      0.0398
         6        -1.2002     -0.3555      0.0000      1.5668      0.0398
         7         0.0000      0.0000     -2.8427      8.0809      0.3847
         8         0.0000      0.0000      0.0000      0.0000      0.0000
         9         0.0000      0.0000      0.0000      0.0000      0.0000
        10         0.0000      0.0000      0.0000      0.0000      0.0000
        11         0.0000      0.0000      0.0000      0.0000      0.0000
        12         0.0000      0.0000      0.0000      0.0000      0.0000
 Ground to excited state transition velocity dipole moments (Au):
       state          X           Y           Z        Dip. S.      Osc.
         1         0.0000      0.0000      0.0000      0.0000      0.0000
         2         0.0000      0.0000      0.0000      0.0000      0.0000
         3         0.0179     -0.0593      0.0000      0.0038     -0.0909
         4         0.0609      0.0183      0.0000      0.0040     -0.0959
         5         0.0050     -0.0168      0.0000      0.0003      0.0054
         6         0.0168      0.0050      0.0000      0.0003      0.0054
         7         0.0000      0.0000      0.1959      0.0384      0.3583
         8         0.0000      0.0000      0.0000      0.0000      0.0000
         9         0.0000      0.0000      0.0000      0.0000      0.0000
        10         0.0000      0.0000      0.0000      0.0000      0.0000
        11         0.0000      0.0000      0.0000      0.0000      0.0000
        12         0.0000      0.0000      0.0000      0.0000      0.0000
 Ground to excited state transition magnetic dipole moments (Au):
       state          X           Y           Z
         1         0.0000      0.0000      0.0000
         2         0.0000      0.0000      0.0000
         3         0.0000      0.0000      0.0000
         4        -0.0008      0.0005      0.0000
         5         0.0000      0.0000      0.0000
         6         0.0000      0.0000      0.0000
         7         0.0000      0.0000      0.0000
         8         0.6505      1.1305      0.0000
         9        -1.1304      0.6504      0.0000
        10         0.0000      0.0000      0.0000
        11         0.0000      0.0000      0.0000
        12         0.0000      0.0000      0.0000
 Ground to excited state transition velocity quadrupole moments (Au):
       state          XX          YY          ZZ          XY          XZ          YZ
         1         0.0000      0.0000      0.0000      0.0000      0.0000      0.0000
         2         0.0000      0.0000      0.0000      0.0000      0.0000      0.0000
         3         0.0000      0.0000      0.0000      0.0000      0.0000      0.0000
         4         0.0000      0.0000      0.0000      0.0000      0.0004      0.0008
         5         0.0000      0.0000      0.0000      0.0000      0.0000      0.0000
         6         0.0000      0.0000      0.0000      0.0000      0.0000      0.0000
         7         0.0000      0.0000      0.0000      0.0000      0.0000      0.0000
         8         0.0000      0.0000      0.0000      0.0000      0.0683     -0.0393
         9         0.0000      0.0000      0.0000      0.0000      0.0393      0.0683
        10         0.0000      0.0000      0.0000      0.0000      0.0000      0.0000
        11        -0.2860      0.2860      0.0000      0.0488      0.0000      0.0000
        12         0.0488     -0.0488      0.0000      0.2860      0.0000      0.0000
 <0|del|b> * <b|rxdel|0> + <0|del|b> * <b|delr+rdel|0>
 Rotatory Strengths (R) in cgs (10**-40 erg-esu-cm/Gauss)
       state          XX          YY          ZZ    R(velocity)    E-M Angle
         1         0.0000      0.0000      0.0000      0.0000       90.00
         2         0.0000      0.0000      0.0000      0.0000       90.00
         3        -0.0002     -0.0001      0.0240      0.0079       90.00
         4        -0.0084      0.0481      1.0149      0.3515       90.00
         5         0.0000      0.0000      0.0000      0.0000       90.00
         6         0.0000      0.0000      0.0000      0.0000       90.00
         7         0.0000      0.0000      0.0000      0.0000       90.00
         8         0.0000      0.0000      0.0000      0.0000       90.00
         9         0.0065     -0.0341     -0.0311     -0.0195       90.00
        10         0.0000      0.0000      0.0000      0.0000       90.00
        11         0.0000      0.0000      0.0000      0.0000       90.00
        12         0.0000      0.0000      0.0000      0.0000       90.00
 1/2[<0|r|b>*<b|rxdel|0> + (<0|rxdel|b>*<b|r|0>)*]
 Rotatory Strengths (R) in cgs (10**-40 erg-esu-cm/Gauss)
       state          XX          YY          ZZ     R(length)
         1         0.0000      0.0000      0.0000      0.0000
         2         0.0000      0.0000      0.0000      0.0000
         3        -0.0060     -0.0115      0.0000     -0.0058
         4        -0.9201      0.1593      0.0000     -0.2536
         5         0.0001      0.0000      0.0000      0.0000
         6        -0.0001      0.0000      0.0000      0.0000
         7         0.0000      0.0000      0.0000      0.0000
         8         0.0000      0.0000      0.0000      0.0000
         9         0.0142     -0.0022      0.0000      0.0040
        10         0.0000      0.0000      0.0000      0.0000
        11         0.0000      0.0000      0.0000      0.0000
        12         0.0000      0.0000      0.0000      0.0000
  1/2[<0|del|b>*<b|r|0> + (<0|r|b>*<b|del|0>)*] (Au)
       state          X           Y           Z        Dip. S.   Osc.(frdel)
         1         0.0000      0.0000      0.0000      0.0000      0.0000
         2         0.0000      0.0000      0.0000      0.0000      0.0000
         3        -0.0084     -0.0926      0.0000      0.1010      0.0673
         4        -0.0952     -0.0086      0.0000      0.1038      0.0692
         5        -0.0018     -0.0202      0.0000      0.0220      0.0146
         6        -0.0202     -0.0018      0.0000      0.0220      0.0146
         7         0.0000      0.0000     -0.5569      0.5569      0.3712
         8         0.0000      0.0000      0.0000      0.0000      0.0000
         9         0.0000      0.0000      0.0000      0.0000      0.0000
        10         0.0000      0.0000      0.0000      0.0000      0.0000
        11         0.0000      0.0000      0.0000      0.0000      0.0000
        12         0.0000      0.0000      0.0000      0.0000      0.0000

 Excitation energies and oscillator strengths:
 
 Excited state symmetry could not be determined.
 Excited State   1:  5.008-?Sym    -3.0550 eV    -405.84 nm  f=-0.0000  <S**2>=6.019
     21A -> 23A        0.44910
     21A -> 24A        0.58222
     22A -> 23A        0.58222
     22A -> 24A       -0.44910
     21A <- 23A       -0.13080
     21A <- 24A       -0.16957
     22A <- 23A       -0.16957
     22A <- 24A        0.13080
 This state for optimization and/or second-order correction.
 Total Energy, E(TD-HF/TD-KS) =  -1299.56306194    
 Copying the excited state density for this state as the 1-particle RhoCI density.
 
 Excited state symmetry could not be determined.
 Excited State   2:  5.008-?Sym    -3.0550 eV    -405.84 nm  f=-0.0000  <S**2>=6.019
     21A -> 23A       -0.58222
     21A -> 24A        0.44910
     22A -> 23A        0.44910
     22A -> 24A        0.58222
     21A <- 23A        0.16957
     21A <- 24A       -0.13080
     22A <- 23A       -0.13080
     22A <- 24A       -0.16957
 
 Excited state symmetry could not be determined.
 Excited State   3:  5.020-?Sym    -0.7656 eV    -1619.45 nm  f=-0.0499  <S**2>=6.051
     16A -> 27A       -0.12748
     16A -> 31A       -0.14982
     19A -> 23A        0.75541
     19A -> 24A       -0.84464
     19A -> 34A        0.21048
     19A -> 35A       -0.13766
     20A -> 26A       -0.18065
     20A -> 27A        0.27160
     20A -> 31A        0.24898
     21A -> 25A        0.25146
     21A -> 29A        0.12682
     22A -> 25A       -0.26937
     22A -> 29A       -0.13586
     21A <- 25A        0.47833
     21A <- 29A        0.34526
     22A <- 25A       -0.51242
     22A <- 29A       -0.36987
 
 Excited state symmetry could not be determined.
 Excited State   4:  5.021-?Sym    -0.7655 eV    -1619.60 nm  f=-0.0499  <S**2>=6.052
     16A -> 26A        0.12745
     16A -> 30A        0.14986
     19A -> 23A        0.84452
     19A -> 24A        0.75530
     19A -> 34A       -0.13774
     19A -> 35A       -0.21060
     20A -> 26A       -0.27168
     20A -> 27A       -0.18071
     20A -> 30A       -0.24897
     21A -> 25A        0.26918
     21A -> 29A        0.13624
     22A -> 25A        0.25127
     22A -> 29A        0.12717
     21A <- 25A        0.51261
     21A <- 29A        0.36938
     22A <- 25A        0.47851
     22A <- 29A        0.34481
 
 Excited state symmetry could not be determined.
 Excited State   5:  5.442-?Sym    1.0361 eV 1196.67 nm  f=0.0398  <S**2>=7.155
     19A -> 23A       -0.32877
     19A -> 24A        0.37075
     20A -> 27A       -0.10536
     20A -> 31A       -0.10175
     21A -> 25A        0.75456
     21A -> 29A        0.40954
     22A -> 25A       -0.81522
     22A -> 29A       -0.44247
     16A <- 31A       -0.12018
     19A <- 23A        0.55152
     19A <- 24A       -0.62194
     19A <- 34A        0.15941
     19A <- 35A       -0.10330
     20A <- 26A       -0.12874
     20A <- 27A        0.19533
     20A <- 31A        0.17044
     21A <- 25A       -0.11622
     22A <- 25A        0.12556
     22A <- 29A        0.10371
 
 Excited state symmetry could not be determined.
 Excited State   6:  5.442-?Sym    1.0361 eV 1196.67 nm  f=0.0398  <S**2>=7.155
     19A -> 23A       -0.37075
     19A -> 24A       -0.32877
     20A -> 26A        0.10536
     20A -> 30A        0.10175
     21A -> 25A        0.81522
     21A -> 29A        0.44247
     22A -> 25A        0.75456
     22A -> 29A        0.40954
     16A <- 30A        0.12018
     19A <- 23A        0.62194
     19A <- 24A        0.55152
     19A <- 34A       -0.10330
     19A <- 35A       -0.15941
     20A <- 26A       -0.19533
     20A <- 27A       -0.12874
     20A <- 30A       -0.17044
     21A <- 25A       -0.12556
     21A <- 29A       -0.10371
     22A <- 25A       -0.11622
 
 Excited state symmetry could not be determined.
 Excited State   7:  5.010-?Sym    1.9431 eV  638.09 nm  f=0.3847  <S**2>=6.026
     19A -> 25A       -0.14630
     19A -> 29A       -0.13518
     21A -> 23A        0.69864
     22A -> 24A        0.69864
     19A <- 29A       -0.10112
 
 Excited state symmetry could not be determined.
 Excited State   8:  5.077-?Sym    2.0721 eV  598.35 nm  f=0.0000  <S**2>=6.195
     16A -> 23A       -0.23043
     19A -> 26A       -0.31375
     19A -> 30A       -0.22603
     19A -> 31A        0.13745
     20A -> 23A        0.85722
     20A -> 35A       -0.14381
 
 Excited state symmetry could not be determined.
 Excited State   9:  5.077-?Sym    2.0721 eV  598.35 nm  f=0.0000  <S**2>=6.195
     16A -> 24A       -0.23040
     19A -> 27A       -0.31375
     19A -> 30A       -0.13745
     19A -> 31A       -0.22604
     20A -> 24A        0.85723
     20A -> 34A       -0.14380
 
 Excited state symmetry could not be determined.
 Excited State  10:  5.020-?Sym    3.0156 eV  411.15 nm  f=0.0000  <S**2>=6.051
     21A -> 24A       -0.73368
     22A -> 23A        0.73368
     21A <- 24A       -0.20040
     22A <- 23A        0.20040
 
 Excited state symmetry could not be determined.
 Excited State  11:  5.238-?Sym    3.6833 eV  336.61 nm  f=0.0000  <S**2>=6.610
     17A -> 24A       -0.10277
     18A -> 23A        0.10277
     21A -> 26A       -0.51958
     21A -> 27A       -0.34374
     21A -> 30A       -0.32475
     22A -> 26A       -0.34374
     22A -> 27A        0.51958
     22A -> 31A        0.32475
 
 Excited state symmetry could not be determined.
 Excited State  12:  5.238-?Sym    3.6833 eV  336.61 nm  f=0.0000  <S**2>=6.610
     17A -> 23A       -0.10277
     18A -> 24A       -0.10277
     21A -> 26A       -0.34374
     21A -> 27A        0.51958
     21A -> 31A        0.32475
     22A -> 26A        0.51958
     22A -> 27A        0.34374
     22A -> 30A        0.32475
 SavETr:  write IOETrn=   770 NScale= 10 NData=  16 NLR=1 NState=   12 LETran=     226.
 Leave Link  914 at Tue Sep 22 15:18:06 2015, MaxMem=    33554432 cpu:               6.5 elap:               6.5
 (Enter /home/gauss/gdvi01p/gdv/l601.exe)
 Copying SCF densities to generalized density rwf, IOpCl= 1 IROHF=0.

 **********************************************************************

            Population analysis using the SCF density.

 **********************************************************************

 Alpha  occ. eigenvalues -- -240.60980 -29.25791 -24.96286 -24.96286 -24.95665
 Alpha  occ. eigenvalues --  -20.62622 -20.62621  -4.08178  -2.78712  -2.78712
 Alpha  occ. eigenvalues --   -2.78496  -1.16925  -1.14115  -0.70409  -0.70409
 Alpha  occ. eigenvalues --   -0.70039  -0.68501  -0.68501  -0.51773  -0.50317
 Alpha  occ. eigenvalues --   -0.26855  -0.26855
 Alpha virt. eigenvalues --   -0.03606  -0.03606   0.02016   0.09147   0.09147
 Alpha virt. eigenvalues --    0.11000   0.18904   0.20707   0.20707   0.22170
 Alpha virt. eigenvalues --    0.22170   0.35160   0.35160   0.36831   0.39709
 Alpha virt. eigenvalues --    0.74396   0.74396   0.82697   0.88445   1.31257
 Alpha virt. eigenvalues --    1.31257   1.31662   1.32276   1.32276   1.33488
 Alpha virt. eigenvalues --    1.33488   1.36631   1.49560   1.49560   1.72250
 Alpha virt. eigenvalues --    2.07103   2.30575   2.52003   2.52003   2.64709
 Alpha virt. eigenvalues --    2.66093   2.66093   2.67728   2.67728   2.98787
 Alpha virt. eigenvalues --    2.98787   3.00574   3.00574   3.09071   3.09071
 Alpha virt. eigenvalues --    3.30646   3.30646   3.67616   4.01922
  Beta  occ. eigenvalues -- -240.60469 -29.12692 -24.83398 -24.82977 -24.82977
  Beta  occ. eigenvalues --  -20.69217 -20.69217  -3.68809  -2.32145  -2.30810
  Beta  occ. eigenvalues --   -2.30810  -1.40057  -1.38729  -0.66269  -0.66269
  Beta  occ. eigenvalues --   -0.65768  -0.65768  -0.64967  -0.60950
  Beta virt. eigenvalues --    0.02240   0.06891   0.06891   0.11130   0.15713
  Beta virt. eigenvalues --    0.17272   0.17272   0.23043   0.23043   0.24513
  Beta virt. eigenvalues --    0.24513   0.35266   0.35266   0.35873   0.35873
  Beta virt. eigenvalues --    0.38306   0.39244   0.39727   0.81977   0.81977
  Beta virt. eigenvalues --    0.90957   0.93714   1.18520   1.18520   1.27092
  Beta virt. eigenvalues --    1.32931   1.34427   1.34427   1.54063   1.54063
  Beta virt. eigenvalues --    1.56315   1.56315   1.83828   2.01763   2.28158
  Beta virt. eigenvalues --    2.58172   2.58172   2.70977   2.75920   2.75920
  Beta virt. eigenvalues --    2.81813   2.81813   2.92441   2.92441   2.97536
  Beta virt. eigenvalues --    2.97536   3.00282   3.00282   3.36745   3.36745
  Beta virt. eigenvalues --    3.64976   4.09993
          Condensed to atoms (all electrons):
               1          2          3
     1  Mn  23.821130   0.302956   0.302956
     2  O    0.302956   7.984033  -0.000510
     3  O    0.302956  -0.000510   7.984033
          Atomic-Atomic Spin Densities.
               1          2          3
     1  Mn   5.616204   0.158018   0.158018
     2  O    0.158018  -1.624254   0.000116
     3  O    0.158018   0.000116  -1.624254
 Mulliken charges and spin densities:
               1          2
     1  Mn   0.572958   5.932240
     2  O   -0.286479  -1.466120
     3  O   -0.286479  -1.466120
 Sum of Mulliken charges =   0.00000   3.00000
 Mulliken charges and spin densities with hydrogens summed into heavy atoms:
               1          2
     1  Mn   0.572958   5.932240
     2  O   -0.286479  -1.466120
     3  O   -0.286479  -1.466120
 Electronic spatial extent (au):  <R**2>=            259.8779
 Charge=              0.0000 electrons
 Dipole moment (field-independent basis, Debye):
    X=              0.0000    Y=              0.0000    Z=              0.0000  Tot=              0.0000
 Quadrupole moment (field-independent basis, Debye-Ang):
   XX=            -26.3434   YY=            -26.3434   ZZ=            -36.5209
   XY=              0.0000   XZ=              0.0000   YZ=              0.0000
 Traceless Quadrupole moment (field-independent basis, Debye-Ang):
   XX=              3.3925   YY=              3.3925   ZZ=             -6.7850
   XY=              0.0000   XZ=              0.0000   YZ=              0.0000
 Octapole moment (field-independent basis, Debye-Ang**2):
  XXX=              0.0000  YYY=              0.0000  ZZZ=              0.0000  XYY=              0.0000
  XXY=              0.0000  XXZ=              0.0000  XZZ=              0.0000  YZZ=              0.0000
  YYZ=              0.0000  XYZ=              0.0000
 Hexadecapole moment (field-independent basis, Debye-Ang**3):
 XXXX=            -43.4953 YYYY=            -43.4953 ZZZZ=           -303.7000 XXXY=              0.0000
 XXXZ=              0.0000 YYYX=              0.0000 YYYZ=              0.0000 ZZZX=              0.0000
 ZZZY=              0.0000 XXYY=            -14.4984 XXZZ=            -49.4396 YYZZ=            -49.4396
 XXYZ=              0.0000 YYXZ=              0.0000 ZZXY=              0.0000
 N-N= 1.242059643306D+02 E-N=-3.337864519834D+03  KE= 1.299264443554D+03
 Leave Link  601 at Tue Sep 22 15:18:06 2015, MaxMem=    33554432 cpu:               0.0 elap:               0.0
 (Enter /home/gauss/gdvi01p/gdv/l9999.exe)
 Unable to Open any file for archive entry.
 1\1\GINC-MEDUSA\SP\UTD-Full\CC-pVDZ\Mn1O2(4)\DBWY\22-Sep-2015\0\\#p uh
 f/cc-pVDZ nosymm td(full,nstates=12,50-50)\\MnO2 cc-pVDZ\\0,4\Mn,0,0.,
 0.,0.\O,0,0.,0.,1.840528\O,0,0.,0.,-1.840528\\Version=ES64L-GDVRevI.01
 +\HF=-1299.4507932\MP2=-1300.1322264\PUHF=-1299.508068\PMP2-0=-1300.18
 85497\S2=6.17179\S2-1=5.98555\S2A=7.709619\RMSD=1.038e-09\PG=D*H [O(Mn
 1),C*(O1.O1)]\\@
 The archive entry for this job was punched.


 THERE IS AN OLD, OLD RECIPE IN MAINE FOR STEWING COOT. PLACE THE
 BIRD IN A KETTLE OF WATER WITH A RED BUILDING BRICK FREE OF MORTAR AND
 BLEMISHES. PARBOIL THE COOT AND BRICK TOGETHER FOR THREE HOURS.
 POUR OFF THE WATER, REFILL THE KETTLE, AND AGAIN PARBOIL FOR THREE HOURS.
 ONCE AGAIN POUR OFF THE WATER, FOR THE LAST TIME ADD FRESH WATER,
 AND LET THE COOT AND BRICK SIMMER TOGETHER OVERNIGHT. IN THE MORNING,
 THROW AWAY THE COOT AND EAT THE BRICK.
 Job cpu time:       0 days  0 hours  0 minutes 31.8 seconds.
 Elapsed time:       0 days  0 hours  0 minutes 31.5 seconds.
 File lengths (MBytes):  RWF=    168 Int=      0 D2E=      0 Chk=      4 Scr=      1
 Normal termination of Gaussian DV at Tue Sep 22 15:18:06 2015.
