 Entering Gaussian System, Link 0=gdv
 Input=O2_3-21G_TD.com
 Output=O2_3-21G_TD.log
 Initial command:
 /home/gauss/gdvi03p/gdv/l1.exe "/home/GauScr/Gau-3665.inp" -scrdir="/home/GauScr/"
 Entering Link 1 = /home/gauss/gdvi03p/gdv/l1.exe PID=      3666.
  
 Copyright (c) 1988,1990,1992,1993,1995,1998,2003,2009,2015,
            Gaussian, Inc.  All Rights Reserved.
  
 This is the private, development version of
 the Gaussian(R) DV system of programs. It is based on
 the Gaussian(R) 09 system (copyright 2009, Gaussian, Inc.),
 the Gaussian(R) 03 system (copyright 2003, Gaussian, Inc.),
 the Gaussian(R) 98 system (copyright 1998, Gaussian, Inc.),
 the Gaussian(R) 94 system (copyright 1995, Gaussian, Inc.),
 the Gaussian 92(TM) system (copyright 1992, Gaussian, Inc.),
 the Gaussian 90(TM) system (copyright 1990, Gaussian, Inc.),
 the Gaussian 88(TM) system (copyright 1988, Gaussian, Inc.),
 the Gaussian 86(TM) system (copyright 1986, Carnegie Mellon
 University), and the Gaussian 82(TM) system (copyright 1983,
 Carnegie Mellon University). Gaussian is a federally registered
 trademark of Gaussian, Inc.
  
 This software contains proprietary and confidential information,
 including trade secrets, belonging to Gaussian, Inc.
  
 This software is provided under written license and may be
 used, copied, transmitted, or stored only in accord with that
 written license.
  
 The following legend is applicable only to US Government
 contracts under FAR:
  
                    RESTRICTED RIGHTS LEGEND
  
 Use, reproduction and disclosure by the US Government is
 subject to restrictions as set forth in subparagraphs (a)
 and (c) of the Commercial Computer Software - Restricted
 Rights clause in FAR 52.227-19.
  
 Gaussian, Inc.
 340 Quinnipiac St., Bldg. 40, Wallingford CT 06492
  
  
 ---------------------------------------------------------------
 Warning -- This program may not be used in any manner that
 competes with the business of Gaussian, Inc. or will provide
 assistance to any competitor of Gaussian, Inc.  The licensee
 of this program is prohibited from giving any competitor of
 Gaussian, Inc. access to this program.  By using this program,
 the user acknowledges that Gaussian, Inc. is engaged in the
 business of creating and licensing software in the field of
 computational chemistry and represents and warrants to the
 licensee that it is not a competitor of Gaussian, Inc. and that
 it will not use this program in any manner prohibited above.
 ---------------------------------------------------------------
  

 Cite this work as:
 Gaussian Development Version, Revision I.03+,
 M. J. Frisch, G. W. Trucks, H. B. Schlegel, G. E. Scuseria, 
 M. A. Robb, J. R. Cheeseman, G. Scalmani, V. Barone, B. Mennucci, 
 G. A. Petersson, H. Nakatsuji, M. Caricato, X. Li, H. P. Hratchian, 
 J. Bloino, B. G. Janesko, A. F. Izmaylov, A. Marenich, F. Lipparini, 
 G. Zheng, J. L. Sonnenberg, W. Liang, M. Hada, M. Ehara, K. Toyota, 
 R. Fukuda, J. Hasegawa, M. Ishida, T. Nakajima, Y. Honda, O. Kitao, 
 H. Nakai, T. Vreven, K. Throssell, J. A. Montgomery, Jr., 
 J. E. Peralta, F. Ogliaro, M. Bearpark, J. J. Heyd, E. Brothers, 
 K. N. Kudin, V. N. Staroverov, T. Keith, R. Kobayashi, J. Normand, 
 K. Raghavachari, A. Rendell, J. C. Burant, S. S. Iyengar, J. Tomasi, 
 M. Cossi, N. Rega, J. M. Millam, M. Klene, J. E. Knox, J. B. Cross, 
 V. Bakken, C. Adamo, J. Jaramillo, R. Gomperts, R. E. Stratmann, 
 O. Yazyev, A. J. Austin, R. Cammi, C. Pomelli, J. W. Ochterski, 
 R. L. Martin, K. Morokuma, V. G. Zakrzewski, G. A. Voth, 
 P. Salvador, J. J. Dannenberg, S. Dapprich, P. V. Parandekar, 
 N. J. Mayhall, A. D. Daniels, O. Farkas, J. B. Foresman, 
 J. V. Ortiz, J. Cioslowski, and D. J. Fox, 
 Gaussian, Inc., Wallingford CT, 2014.
 
 *******************************************
 Gaussian DV:  ES64L-GDVRevI.03+  2-May-2015
                 28-Oct-2015 
 *******************************************
 --------------------------------
 #p uhf/3-21G td(full,nstates=12)
 --------------------------------
 1/38=1,172=1/1;
 2/12=2,17=6,18=5,40=1/2;
 3/5=5,11=2,25=1,30=1,116=2/1,2,3,8;
 4//1;
 5/5=2,38=5/2;
 8/6=1,10=90,108=12/1,4;
 9/41=12,42=3,70=2/14;
 6/7=2,8=2,9=2,10=2/1;
 99/5=1,9=1/99;
 Leave Link    1 at Wed Oct 28 13:04:49 2015, MaxMem=           0 cpu:               0.0 elap:               0.0
 (Enter /home/gauss/gdvi03p/gdv/l101.exe)
 --------
 O2 6-31G
 --------
 Symbolic Z-matrix:
 Charge =  0 Multiplicity = 3
 O                     0.        0.        0.60859 
 O                     0.        0.       -0.60859 
 
 ITRead=  0  0
 MicOpt= -1 -1
 NAtoms=      2 NQM=        2 NQMF=       0 NMMI=      0 NMMIF=      0
                NMic=       0 NMicF=      0.
                    Isotopes and Nuclear Properties:
 (Nuclear quadrupole moments (NQMom) in fm**2, nuclear magnetic moments (NMagM)
  in nuclear magnetons)

  Atom         1           2
 IAtWgt=          16          16
 AtmWgt=  15.9949146  15.9949146
 NucSpn=           0           0
 AtZEff=   0.0000000   0.0000000
 NQMom=    0.0000000   0.0000000
 NMagM=    0.0000000   0.0000000
 AtZNuc=   8.0000000   8.0000000
 Leave Link  101 at Wed Oct 28 13:04:49 2015, MaxMem=    33554432 cpu:               0.1 elap:               0.1
 (Enter /home/gauss/gdvi03p/gdv/l202.exe)
                          Input orientation:                          
 ---------------------------------------------------------------------
 Center     Atomic      Atomic             Coordinates (Angstroms)
 Number     Number       Type             X           Y           Z
 ---------------------------------------------------------------------
      1          8           0        0.000000    0.000000    0.608586
      2          8           0        0.000000    0.000000   -0.608586
 ---------------------------------------------------------------------
 Stoichiometry    O2(3)
 Framework group  D*H[C*(O.O)]
 Deg. of freedom     1
 Full point group                 D*H     NOp   8
 Largest Abelian subgroup         D2H     NOp   8
 Largest concise Abelian subgroup C2      NOp   2
                         Standard orientation:                         
 ---------------------------------------------------------------------
 Center     Atomic      Atomic             Coordinates (Angstroms)
 Number     Number       Type             X           Y           Z
 ---------------------------------------------------------------------
      1          8           0        0.000000    0.000000    0.608586
      2          8           0        0.000000    0.000000   -0.608586
 ---------------------------------------------------------------------
 Rotational constants (GHZ):      0.0000000     42.6541569     42.6541569
 Leave Link  202 at Wed Oct 28 13:04:49 2015, MaxMem=    33554432 cpu:               0.0 elap:               0.0
 (Enter /home/gauss/gdvi03p/gdv/l301.exe)
 Standard basis: 3-21G (6D, 7F)
 Ernie: Thresh=  0.10000D-02 Tol=  0.10000D-05 Strict=F.
 There are     5 symmetry adapted cartesian basis functions of AG  symmetry.
 There are     0 symmetry adapted cartesian basis functions of B1G symmetry.
 There are     2 symmetry adapted cartesian basis functions of B2G symmetry.
 There are     2 symmetry adapted cartesian basis functions of B3G symmetry.
 There are     0 symmetry adapted cartesian basis functions of AU  symmetry.
 There are     5 symmetry adapted cartesian basis functions of B1U symmetry.
 There are     2 symmetry adapted cartesian basis functions of B2U symmetry.
 There are     2 symmetry adapted cartesian basis functions of B3U symmetry.
 There are     5 symmetry adapted basis functions of AG  symmetry.
 There are     0 symmetry adapted basis functions of B1G symmetry.
 There are     2 symmetry adapted basis functions of B2G symmetry.
 There are     2 symmetry adapted basis functions of B3G symmetry.
 There are     0 symmetry adapted basis functions of AU  symmetry.
 There are     5 symmetry adapted basis functions of B1U symmetry.
 There are     2 symmetry adapted basis functions of B2U symmetry.
 There are     2 symmetry adapted basis functions of B3U symmetry.
    18 basis functions,    30 primitive gaussians,    18 cartesian basis functions
     9 alpha electrons        7 beta electrons
       nuclear repulsion energy        27.8246143510 Hartrees.
 IExCor=    0 DFT=F Ex=HF Corr=None ExCW=0 ScaHFX=  1.000000
 ScaDFX=  1.000000  1.000000  1.000000  1.000000 ScalE2=  1.000000  1.000000
 IRadAn=      0 IRanWt=     -1 IRanGd=            0 ICorTp=0 IEmpDi=  4
 NAtoms=    2 NActive=    2 NUniq=    1 SFac= 4.00D+00 NAtFMM=   60 NAOKFM=F Big=F
 Integral buffers will be    131072 words long.
 Raffenetti 2 integral format.
 Two-electron integral symmetry is turned on.
 Leave Link  301 at Wed Oct 28 13:04:49 2015, MaxMem=    33554432 cpu:               0.0 elap:               0.0
 (Enter /home/gauss/gdvi03p/gdv/l302.exe)
 NPDir=0 NMtPBC=     1 NCelOv=     1 NCel=       1 NClECP=     1 NCelD=      1
         NCelK=      1 NCelE2=     1 NClLst=     1 CellRange=     0.0.
 One-electron integrals computed using PRISM.
 One-electron integral symmetry used in STVInt
 NBasis=    18 RedAO= T EigKep=  4.97D-02  NBF=     5     0     2     2     0     5     2     2
 NBsUse=    18 1.00D-06 EigRej= -1.00D+00 NBFU=     5     0     2     2     0     5     2     2
 Leave Link  302 at Wed Oct 28 13:04:49 2015, MaxMem=    33554432 cpu:               0.1 elap:               0.1
 (Enter /home/gauss/gdvi03p/gdv/l303.exe)
 DipDrv:  MaxL=1.
 Leave Link  303 at Wed Oct 28 13:04:49 2015, MaxMem=    33554432 cpu:               0.0 elap:               0.0
 (Enter /home/gauss/gdvi03p/gdv/l308.exe)
 Leave Link  308 at Wed Oct 28 13:04:49 2015, MaxMem=    33554432 cpu:               0.0 elap:               0.0
 (Enter /home/gauss/gdvi03p/gdv/l401.exe)
 ExpMin= 3.74D-01 ExpMax= 3.22D+02 ExpMxC= 3.22D+02 IAcc=1 IRadAn=         1 AccDes= 0.00D+00
 Harris functional with IExCor=  205 and IRadAn=       1 diagonalized for initial guess.
 HarFok:  IExCor=  205 AccDes= 0.00D+00 IRadAn=         1 IDoV= 1 UseB2=F ITyADJ=14
 ICtDFT=  3500011 ScaDFX=  1.000000  1.000000  1.000000  1.000000
 FoFCou: FMM=F IPFlag=           0 FMFlag=      100000 FMFlg1=           0
         NFxFlg=           0 DoJE=T BraDBF=F KetDBF=T FulRan=T
         wScrn=  0.000000 ICntrl=       500 IOpCl=  0 I1Cent=   200000004 NGrid=           0
         NMat0=    1 NMatS0=      1 NMatT0=    0 NMatD0=    1 NMtDS0=    0 NMtDT0=    0
 Petite list used in FoFCou.
 Harris En= -148.729557246988    
 JPrj=0 DoOrth=F DoCkMO=F.
 Initial guess orbital symmetries:
 Alpha Orbitals:
       Occupied  (SGU) (SGG) (SGG) (SGU) (SGG) (PIU) (PIU) (PIG)
                 (PIG)
       Virtual   (SGU) (SGU) (PIU) (PIU) (PIG) (PIG) (SGG) (SGG)
                 (SGU)
 Beta  Orbitals:
       Occupied  (SGU) (SGG) (SGG) (SGU) (SGG) (PIU) (PIU)
       Virtual   (PIG) (PIG) (SGU) (SGU) (PIU) (PIU) (PIG) (PIG)
                 (SGG) (SGG) (SGU)
 The electronic state of the initial guess is 3-SGG.
 Initial guess <Sx>= 0.0000 <Sy>= 0.0000 <Sz>= 1.0000 <S**2>= 2.0000 S= 1.0000
 Leave Link  401 at Wed Oct 28 13:04:49 2015, MaxMem=    33554432 cpu:               0.1 elap:               0.1
 (Enter /home/gauss/gdvi03p/gdv/l502.exe)
 Keep R1 and R2 ints in memory in symmetry-blocked form, NReq=818754.
 FoFCou: FMM=F IPFlag=           0 FMFlag=           0 FMFlg1=           0
         NFxFlg=           0 DoJE=F BraDBF=F KetDBF=F FulRan=T
         wScrn=  0.000000 ICntrl=       600 IOpCl=  0 I1Cent=           0 NGrid=           0
         NMat0=    1 NMatS0=    171 NMatT0=    0 NMatD0=    1 NMtDS0=    0 NMtDT0=    0
 Petite list used in FoFCou.
 UHF open shell SCF:
 Using DIIS extrapolation, IDIIS=  1040.
 NGot=    33554432 LenX=    33546652 LenY=    33545770
 Requested convergence on RMS density matrix=1.00D-08 within 128 cycles.
 Requested convergence on MAX density matrix=1.00D-06.
 Requested convergence on             energy=1.00D-06.
 No special actions if energy rises.

 Cycle   1  Pass 1  IDiag  1:
 E= -148.742278411047    
 DIIS: error= 8.20D-02 at cycle   1 NSaved=   1.
 NSaved= 1 IEnMin= 1 EnMin= -148.742278411047     IErMin= 1 ErrMin= 8.20D-02
 ErrMax= 8.20D-02  0.00D+00 EMaxC= 1.00D-01 BMatC= 2.89D-01 BMatP= 2.89D-01
 IDIUse=3 WtCom= 1.80D-01 WtEn= 8.20D-01
 Coeff-Com:  0.100D+01
 Coeff-En:   0.100D+01
 Coeff:      0.100D+01
 Gap=     0.976 Goal=   None    Shift=    0.000
 Gap=     0.687 Goal=   None    Shift=    0.000
 GapD=    0.687 DampG=2.000 DampE=0.500 DampFc=1.0000 IDamp=-1.
 RMSDP=6.98D-03 MaxDP=5.78D-02              OVMax= 4.40D-02

 Cycle   2  Pass 1  IDiag  1:
 E= -148.765816835813     Delta-E=       -0.023538424765 Rises=F Damp=F
 DIIS: error= 1.20D-02 at cycle   2 NSaved=   2.
 NSaved= 2 IEnMin= 2 EnMin= -148.765816835813     IErMin= 2 ErrMin= 1.20D-02
 ErrMax= 1.20D-02  0.00D+00 EMaxC= 1.00D-01 BMatC= 8.02D-03 BMatP= 2.89D-01
 IDIUse=3 WtCom= 8.80D-01 WtEn= 1.20D-01
 Coeff-Com: -0.999D-01 0.110D+01
 Coeff-En:   0.000D+00 0.100D+01
 Coeff:     -0.879D-01 0.109D+01
 Gap=     0.980 Goal=   None    Shift=    0.000
 Gap=     0.683 Goal=   None    Shift=    0.000
 RMSDP=2.27D-03 MaxDP=1.49D-02 DE=-2.35D-02 OVMax= 1.66D-02

 Cycle   3  Pass 1  IDiag  1:
 E= -148.768059696622     Delta-E=       -0.002242860809 Rises=F Damp=F
 DIIS: error= 4.21D-03 at cycle   3 NSaved=   3.
 NSaved= 3 IEnMin= 3 EnMin= -148.768059696622     IErMin= 3 ErrMin= 4.21D-03
 ErrMax= 4.21D-03  0.00D+00 EMaxC= 1.00D-01 BMatC= 8.20D-04 BMatP= 8.02D-03
 IDIUse=3 WtCom= 9.58D-01 WtEn= 4.21D-02
 Coeff-Com:  0.271D-01-0.478D+00 0.145D+01
 Coeff-En:   0.000D+00 0.000D+00 0.100D+01
 Coeff:      0.260D-01-0.458D+00 0.143D+01
 Gap=     0.984 Goal=   None    Shift=    0.000
 Gap=     0.683 Goal=   None    Shift=    0.000
 RMSDP=9.73D-04 MaxDP=5.02D-03 DE=-2.24D-03 OVMax= 6.45D-03

 Cycle   4  Pass 1  IDiag  1:
 E= -148.768340501693     Delta-E=       -0.000280805071 Rises=F Damp=F
 DIIS: error= 6.72D-04 at cycle   4 NSaved=   4.
 NSaved= 4 IEnMin= 4 EnMin= -148.768340501693     IErMin= 4 ErrMin= 6.72D-04
 ErrMax= 6.72D-04  0.00D+00 EMaxC= 1.00D-01 BMatC= 2.48D-05 BMatP= 8.20D-04
 IDIUse=3 WtCom= 9.93D-01 WtEn= 6.72D-03
 Coeff-Com:  0.433D-02-0.729D-01 0.729D-01 0.996D+00
 Coeff-En:   0.000D+00 0.000D+00 0.000D+00 0.100D+01
 Coeff:      0.430D-02-0.724D-01 0.724D-01 0.996D+00
 Gap=     0.984 Goal=   None    Shift=    0.000
 Gap=     0.683 Goal=   None    Shift=    0.000
 RMSDP=1.70D-04 MaxDP=1.09D-03 DE=-2.81D-04 OVMax= 1.05D-03

 Cycle   5  Pass 1  IDiag  1:
 E= -148.768348021944     Delta-E=       -0.000007520251 Rises=F Damp=F
 DIIS: error= 1.67D-04 at cycle   5 NSaved=   5.
 NSaved= 5 IEnMin= 5 EnMin= -148.768348021944     IErMin= 5 ErrMin= 1.67D-04
 ErrMax= 1.67D-04  0.00D+00 EMaxC= 1.00D-01 BMatC= 1.17D-06 BMatP= 2.48D-05
 IDIUse=3 WtCom= 9.98D-01 WtEn= 1.67D-03
 Coeff-Com: -0.196D-02 0.407D-01-0.100D+00-0.156D+00 0.122D+01
 Coeff-En:   0.000D+00 0.000D+00 0.000D+00 0.000D+00 0.100D+01
 Coeff:     -0.195D-02 0.406D-01-0.100D+00-0.156D+00 0.122D+01
 Gap=     0.984 Goal=   None    Shift=    0.000
 Gap=     0.683 Goal=   None    Shift=    0.000
 RMSDP=4.80D-05 MaxDP=4.25D-04 DE=-7.52D-06 OVMax= 4.86D-04

 Cycle   6  Pass 1  IDiag  1:
 E= -148.768348411236     Delta-E=       -0.000000389292 Rises=F Damp=F
 DIIS: error= 2.29D-05 at cycle   6 NSaved=   6.
 NSaved= 6 IEnMin= 6 EnMin= -148.768348411236     IErMin= 6 ErrMin= 2.29D-05
 ErrMax= 2.29D-05  0.00D+00 EMaxC= 1.00D-01 BMatC= 1.50D-08 BMatP= 1.17D-06
 IDIUse=1 WtCom= 1.00D+00 WtEn= 0.00D+00
 Coeff-Com:  0.802D-03-0.170D-01 0.429D-01 0.544D-01-0.524D+00 0.144D+01
 Coeff:      0.802D-03-0.170D-01 0.429D-01 0.544D-01-0.524D+00 0.144D+01
 Gap=     0.984 Goal=   None    Shift=    0.000
 Gap=     0.683 Goal=   None    Shift=    0.000
 RMSDP=8.46D-06 MaxDP=7.36D-05 DE=-3.89D-07 OVMax= 6.75D-05

 Cycle   7  Pass 1  IDiag  1:
 E= -148.768348418243     Delta-E=       -0.000000007006 Rises=F Damp=F
 DIIS: error= 3.01D-06 at cycle   7 NSaved=   7.
 NSaved= 7 IEnMin= 7 EnMin= -148.768348418243     IErMin= 7 ErrMin= 3.01D-06
 ErrMax= 3.01D-06  0.00D+00 EMaxC= 1.00D-01 BMatC= 3.82D-10 BMatP= 1.50D-08
 IDIUse=1 WtCom= 1.00D+00 WtEn= 0.00D+00
 Coeff-Com: -0.295D-03 0.628D-02-0.159D-01-0.191D-01 0.195D+00-0.611D+00
 Coeff-Com:  0.145D+01
 Coeff:     -0.295D-03 0.628D-02-0.159D-01-0.191D-01 0.195D+00-0.611D+00
 Coeff:      0.145D+01
 Gap=     0.984 Goal=   None    Shift=    0.000
 Gap=     0.683 Goal=   None    Shift=    0.000
 RMSDP=8.05D-07 MaxDP=5.99D-06 DE=-7.01D-09 OVMax= 7.01D-06

 Cycle   8  Pass 1  IDiag  1:
 E= -148.768348418384     Delta-E=       -0.000000000142 Rises=F Damp=F
 DIIS: error= 2.49D-07 at cycle   8 NSaved=   8.
 NSaved= 8 IEnMin= 8 EnMin= -148.768348418384     IErMin= 8 ErrMin= 2.49D-07
 ErrMax= 2.49D-07  0.00D+00 EMaxC= 1.00D-01 BMatC= 3.43D-12 BMatP= 3.82D-10
 IDIUse=1 WtCom= 1.00D+00 WtEn= 0.00D+00
 Coeff-Com:  0.466D-04-0.997D-03 0.254D-02 0.295D-02-0.308D-01 0.983D-01
 Coeff-Com: -0.284D+00 0.121D+01
 Coeff:      0.466D-04-0.997D-03 0.254D-02 0.295D-02-0.308D-01 0.983D-01
 Coeff:     -0.284D+00 0.121D+01
 Gap=     0.984 Goal=   None    Shift=    0.000
 Gap=     0.683 Goal=   None    Shift=    0.000
 RMSDP=6.20D-08 MaxDP=5.23D-07 DE=-1.42D-10 OVMax= 4.49D-07

 Cycle   9  Pass 1  IDiag  1:
 E= -148.768348418385     Delta-E=       -0.000000000001 Rises=F Damp=F
 DIIS: error= 2.98D-08 at cycle   9 NSaved=   9.
 NSaved= 9 IEnMin= 9 EnMin= -148.768348418385     IErMin= 9 ErrMin= 2.98D-08
 ErrMax= 2.98D-08  0.00D+00 EMaxC= 1.00D-01 BMatC= 2.86D-14 BMatP= 3.43D-12
 IDIUse=1 WtCom= 1.00D+00 WtEn= 0.00D+00
 Coeff-Com: -0.243D-05 0.531D-04-0.137D-03-0.139D-03 0.159D-02-0.507D-02
 Coeff-Com:  0.177D-01-0.162D+00 0.115D+01
 Coeff:     -0.243D-05 0.531D-04-0.137D-03-0.139D-03 0.159D-02-0.507D-02
 Coeff:      0.177D-01-0.162D+00 0.115D+01
 Gap=     0.984 Goal=   None    Shift=    0.000
 Gap=     0.683 Goal=   None    Shift=    0.000
 RMSDP=4.70D-09 MaxDP=2.96D-08 DE=-8.24D-13 OVMax= 1.57D-08

 SCF Done:  E(UHF) =  -148.768348418     A.U. after    9 cycles
            NFock=  9  Conv=0.47D-08     -V/T= 2.0031
 <Sx>= 0.0000 <Sy>= 0.0000 <Sz>= 1.0000 <S**2>= 2.0195 S= 1.0065
 <L.S>= 0.000000000000E+00
 KE= 1.483156358335D+02 PE=-4.082029987167D+02 EE= 8.329440011387D+01
 Annihilation of the first spin contaminant:
 S**2 before annihilation     2.0195,   after     2.0002
 Leave Link  502 at Wed Oct 28 13:04:49 2015, MaxMem=    33554432 cpu:               0.1 elap:               0.1
 (Enter /home/gauss/gdvi03p/gdv/l801.exe)
 Range of M.O.s used for correlation:     1    18
 NBasis=    18 NAE=     9 NBE=     7 NFC=     0 NFV=     0
 NROrb=     18 NOA=     9 NOB=     7 NVA=     9 NVB=    11
 Leave Link  801 at Wed Oct 28 13:04:49 2015, MaxMem=    33554432 cpu:               0.0 elap:               0.0
 (Enter /home/gauss/gdvi03p/gdv/l804.exe)
 Open-shell transformation, MDV=    33554432 ITran=3 ISComp=1.
 Unit  1 TFree=         22575 TCopy=        175107.
 Semi-Direct transformation.
 ModeAB=           4 MOrb=             9 LenV=      33429703
 LASXX=        11439 LTotXX=       11439 LenRXX=       27639
 LTotAB=       16200 MaxLAS=       18468 LenRXY=           0
 NonZer=       39078 LenScr=      785920 LnRSAI=       18468
 LnScr1=      785920 LExtra=           0 Total=      1617947
 MaxDsk=          -1 SrtSym=           T ITran=            3
 DoSDTr:  NPSUse=  1
 JobTyp=1 Pass  1:  I=   1 to   9.
 (rs|ai) integrals will be sorted in core.
 Complete sort for first half transformation.
 First half transformation complete.
 Complete sort for second half transformation.
 Second half transformation complete.
 ModeAB=           4 MOrb=             7 LenV=      33429703
 LASXX=         8932 LTotXX=        8932 LenRXX=       10192
 LTotAB=        1260 MaxLAS=       14364 LenRXY=           0
 NonZer=       19124 LenScr=      785920 LnRSAI=       14364
 LnScr1=      785920 LExtra=           0 Total=      1596396
 MaxDsk=          -1 SrtSym=           T ITran=            3
 DoSDTr:  NPSUse=  1
 JobTyp=2 Pass  1:  I=   1 to   7.
 (rs|ai) integrals will be sorted in core.
 Complete sort for first half transformation.
 First half transformation complete.
 Complete sort for second half transformation.
 Second half transformation complete.
 Spin components of T(2) and E(2):
     alpha-alpha T2 =       0.5566448111D-02 E2=     -0.2626155800D-01
     alpha-beta  T2 =       0.4575791501D-01 E2=     -0.1620615126D+00
     beta-beta   T2 =       0.2600729295D-01 E2=     -0.5468298532D-01
 ANorm=    0.1037945883D+01
 E2 =    -0.2430060559D+00 EUMP2 =    -0.14901135447429D+03
 (S**2,0)=  0.20195D+01           (S**2,1)=  0.20009D+01
 E(PUHF)=      -0.14877515636D+03        E(PMP2)=      -0.14901493421D+03
 Leave Link  804 at Wed Oct 28 13:04:49 2015, MaxMem=    33554432 cpu:               0.1 elap:               0.1
 (Enter /home/gauss/gdvi03p/gdv/l914.exe)
 UHF ground state
 MDV=    33554432 DFT=F DoStab=F Mixed=F DoRPA=T DoScal=F NonHer=T
 Making orbital integer symmetry assigments:
 Orbital symmetries:
 Alpha Orbitals:
       Occupied  (SGU) (SGG) (SGG) (SGU) (PIU) (PIU) (SGG) (PIG)
                 (PIG)
       Virtual   (SGU) (PIU) (PIU) (SGU) (PIG) (PIG) (SGG) (SGG)
                 (SGU)
 Beta  Orbitals:
       Occupied  (SGU) (SGG) (SGG) (SGU) (SGG) (PIU) (PIU)
       Virtual   (PIG) (PIG) (SGU) (SGU) (PIU) (PIU) (PIG) (PIG)
                 (SGG) (SGG) (SGU)
 FoFJK:  IHMeth= 1 ICntrl=       0 DoSepK=F KAlg= 0 I1Cent=           0 FoldK=F
 IRaf=         0 NMat=       2 IRICut=       1 DoRegI=T DoRafI=F ISym2E= 1 IDoP0=0 IntGTp=1.
 FoFCou: FMM=F IPFlag=           0 FMFlag=      100000 FMFlg1=           0
         NFxFlg=           0 DoJE=F BraDBF=F KetDBF=F FulRan=T
         wScrn=  0.000000 ICntrl=         0 IOpCl=  1 I1Cent=           0 NGrid=           0
         NMat0=    2 NMatS0=      2 NMatT0=    0 NMatD0=    2 NMtDS0=    0 NMtDT0=    0
 Petite list used in FoFCou.
    96 initial guesses have been made.
 Convergence on wavefunction:    0.001000000000000
 Davidson Disk Diagonalization:  ConvIn= 1.00D-03 SkipCon=T Conv= 1.00D-03.
 Max sub-space:   384 roots to seek:    96 dimension of matrix:          158
 Iteration     1 Dimension    96 NMult     0 NNew     96
 New state      1 was old state      3
 New state      2 was old state      4
 New state      3 was old state      1
 New state      4 was old state      5
 New state      5 was old state      6
 New state      6 was old state      2
 New state     11 was old state     14
 New state     12 was old state     11
 Excitation Energies [eV] at current iteration:
 Root      1 :     1.082013943944958
 Root      2 :     1.082013943946097
 Root      3 :     1.633545604800857
 Root      4 :     6.301914910668811
 Root      5 :     6.301914910668981
 Root      6 :     7.051609647661515
 Root      7 :    11.079446836247260
 Root      8 :    11.079446836247360
 Root      9 :    13.705603115162680
 Root     10 :    13.705603115162770
 Root     11 :    14.523854940556790
 Root     12 :    16.901400511970430
 Root     13 :    16.901400511970460
 Root     14 :    19.005293175809820
 Root     15 :    19.005293175809940
 Root     16 :    23.002168468998080
 Root     17 :    26.132968546548860
 Root     18 :    30.731292675798660
 Root     19 :    31.279834381542600
 Root     20 :    31.279834381542690
 Root     21 :    38.728574091933030
 Root     22 :    41.814598143876060
 Root     23 :    41.814598143876100
 Root     24 :    42.287612973335930
 Root     25 :    42.477671449203400
 Root     26 :    44.150519264593970
 Root     27 :    44.544609479451150
 Root     28 :    44.544609479451180
 Root     29 :    44.687039784912360
 Root     30 :    44.687039784912420
 Root     31 :    45.451249097260710
 Root     32 :    45.554878521747590
 Root     33 :    47.554999615132920
 Root     34 :    47.554999615132990
 Root     35 :    47.851667976571460
 Root     36 :    47.898574282656960
 Root     37 :    47.898574282657030
 Root     38 :    48.185502775787600
 Root     39 :    48.185502775787800
 Root     40 :    48.415330086253400
 Root     41 :    48.581192148928190
 Root     42 :    48.581192148928250
 Root     43 :    50.034152515661160
 Root     44 :    50.034152515661300
 Root     45 :    51.022746645624220
 Root     46 :    51.173169202754350
 Root     47 :    51.838110574490450
 Root     48 :    51.838110574490490
 Root     49 :    52.397539782231390
 Root     50 :    52.397539782231450
 Root     51 :    52.465032378818950
 Root     52 :    52.821059936027700
 Root     53 :    53.321288230339160
 Root     54 :    53.321288230339220
 Root     55 :    53.884538735357800
 Root     56 :    53.884538735357890
 Root     57 :    54.374393768266800
 Root     58 :    54.374393768266850
 Root     59 :    54.411497809668500
 Root     60 :    54.537954952020460
 Root     61 :    55.825857500896180
 Root     62 :    57.414022151136950
 Root     63 :    57.414022151136950
 Root     64 :    57.661126385181000
 Root     65 :    57.959273010114250
 Root     66 :    57.959273010114300
 Root     67 :    61.597627369959960
 Root     68 :    61.597627369959970
 Root     69 :    61.624464182004890
 Root     70 :    61.624464182004920
 Root     71 :    61.787285964319580
 Root     72 :    62.126012897249230
 Root     73 :    62.614656778996280
 Root     74 :    62.614656778996350
 Root     75 :    63.107583055122920
 Root     76 :    63.148466932450690
 Root     77 :    63.148466932450810
 Root     78 :    65.128484061859130
 Root     79 :    65.430358870340300
 Root     80 :    65.566930844249160
 Root     81 :    65.566930844249230
 Root     82 :    69.132029844727810
 Root     83 :    69.132029844727900
 Root     84 :    69.276034061241160
 Root     85 :    71.166462125348800
 Root     86 :    71.166462125348970
 Root     87 :    73.924774440597080
 Root     88 :    75.081181899903140
 Root     89 :    75.195537555547380
 Root     90 :    75.195537555547390
 Root     91 :    76.017303211206280
 Root     92 :    76.017303211206450
 Root     93 :    76.258739720199030
 Root     94 :    77.637259488530940
 Root     95 :    77.637259488531170
 Root     96 :    79.589331545153440
 Iteration     2 Dimension   114 NMult    96 NNew     18
 New state      1 was old state      2
 Root      1 not converged, maximum delta is    0.007137952911421
 New state      2 was old state      1
 Root      2 not converged, maximum delta is    0.007137952922718
 Root      3 has converged.
 Root      4 not converged, maximum delta is    0.324503214591981
 Root      5 not converged, maximum delta is    0.324503214591984
 Root      6 not converged, maximum delta is    0.031670659474845
 New state      7 was old state      8
 Root      7 not converged, maximum delta is    0.109023143269706
 New state      8 was old state      7
 Root      8 not converged, maximum delta is    0.109023175407607
 Root      9 not converged, maximum delta is    0.015417480160977
 Root     10 not converged, maximum delta is    0.015417480160975
 Root     11 not converged, maximum delta is    0.016842351050179
 Root     12 not converged, maximum delta is    0.003313525865909
 Excitation Energies [eV] at current iteration:
 Root      1 :     1.082013943945414   Change is   -0.000000000000684
 Root      2 :     1.082013943945565   Change is    0.000000000000608
 Root      3 :     1.633545604800958   Change is    0.000000000000101
 Root      4 :     6.288774767493931   Change is   -0.013140143174881
 Root      5 :     6.288774767494100   Change is   -0.013140143174881
 Root      6 :     6.971982589508897   Change is   -0.079627058152617
 Root      7 :    11.077535266137920   Change is   -0.001911570109447
 Root      8 :    11.077536293663190   Change is   -0.001910542584072
 Root      9 :    13.674393955626690   Change is   -0.031209159535984
 Root     10 :    13.674393955626690   Change is   -0.031209159536078
 Root     11 :    14.476199873152780   Change is   -0.047655067404006
 Root     12 :    16.892574618442480   Change is   -0.008825893527942
 Iteration     3 Dimension   129 NMult   114 NNew     15
 New state      1 was old state      2
 Root      1 not converged, maximum delta is    0.006307512482031
 New state      2 was old state      1
 Root      2 not converged, maximum delta is    0.006307512472289
 Root      3 has converged.
 Root      4 not converged, maximum delta is    0.520017252391251
 Root      5 not converged, maximum delta is    0.520017252391266
 Root      6 has converged.
 Root      7 not converged, maximum delta is    0.572138444358482
 Root      8 not converged, maximum delta is    0.572138476665508
 New state      9 was old state     10
 Root      9 not converged, maximum delta is    0.221523451459126
 New state     10 was old state      9
 Root     10 not converged, maximum delta is    0.221523451459127
 Root     11 has converged.
 Root     12 has converged.
 Excitation Energies [eV] at current iteration:
 Root      1 :     1.082013943944046   Change is   -0.000000000001520
 Root      2 :     1.082013943945414   Change is    0.000000000000000
 Root      3 :     1.633545604800907   Change is   -0.000000000000050
 Root      4 :     6.288773443470278   Change is   -0.000001324023652
 Root      5 :     6.288773443470553   Change is   -0.000001324023548
 Root      6 :     6.971935898621637   Change is   -0.000046690887261
 Root      7 :    11.077535114501110   Change is   -0.000000151636805
 Root      8 :    11.077535114504030   Change is   -0.000001179159159
 Root      9 :    13.674371058176080   Change is   -0.000022897450611
 Root     10 :    13.674371058176130   Change is   -0.000022897450565
 Root     11 :    14.476154420383010   Change is   -0.000045452769771
 Root     12 :    16.892574592863570   Change is   -0.000000025578909
 Convergence achieved on expansion vectors.
 ***********************************************************************
 Excited states from <AA,BB:AA,BB> singles matrix:
 ***********************************************************************
 
 ExtSpn:  IState=     1 X2= 2.515 Y2= 1.515 X2-Y2-1= 6.66D-16
          S2Grnd=  2.019 Ra=  0.000 Rb= -0.006 T= -0.014 S2Ext= -0.020 S2=  1.999
 ExtSpn:  IState=     2 X2= 2.515 Y2= 1.515 X2-Y2-1=-8.88D-16
          S2Grnd=  2.019 Ra=  0.000 Rb= -0.006 T= -0.014 S2Ext= -0.020 S2=  1.999
 ExtSpn:  IState=     3 X2= 1.883 Y2= 0.883 X2-Y2-1= 0.00D+00
          S2Grnd=  2.019 Ra=  0.000 Rb= -0.006 T=  0.000 S2Ext= -0.006 S2=  2.013
 ExtSpn:  IState=     4 X2= 1.034 Y2= 0.034 X2-Y2-1= 0.00D+00
          S2Grnd=  2.019 Ra=  0.001 Rb= -0.030 T= -0.004 S2Ext= -0.034 S2=  1.986
 ExtSpn:  IState=     5 X2= 1.034 Y2= 0.034 X2-Y2-1= 0.00D+00
          S2Grnd=  2.019 Ra=  0.001 Rb= -0.030 T= -0.004 S2Ext= -0.034 S2=  1.986
 ExtSpn:  IState=     6 X2= 1.047 Y2= 0.047 X2-Y2-1=-2.22D-16
          S2Grnd=  2.019 Ra=  0.090 Rb=  0.014 T= -0.092 S2Ext=  0.012 S2=  2.031
 ExtSpn:  IState=     7 X2= 1.002 Y2= 0.002 X2-Y2-1=-2.22D-16
          S2Grnd=  2.019 Ra= -0.004 Rb=  0.000 T= -0.003 S2Ext= -0.008 S2=  2.012
 ExtSpn:  IState=     8 X2= 1.002 Y2= 0.002 X2-Y2-1=-1.11D-16
          S2Grnd=  2.019 Ra= -0.004 Rb=  0.000 T= -0.003 S2Ext= -0.008 S2=  2.012
 ExtSpn:  IState=     9 X2= 1.035 Y2= 0.035 X2-Y2-1= 4.44D-16
          S2Grnd=  2.019 Ra=  0.029 Rb=  0.991 T=  0.344 S2Ext=  1.364 S2=  3.383
 ExtSpn:  IState=    10 X2= 1.035 Y2= 0.035 X2-Y2-1=-3.33D-16
          S2Grnd=  2.019 Ra=  0.029 Rb=  0.991 T=  0.344 S2Ext=  1.364 S2=  3.383
 ExtSpn:  IState=    11 X2= 1.028 Y2= 0.028 X2-Y2-1= 4.44D-16
          S2Grnd=  2.019 Ra=  0.472 Rb=  0.510 T=  0.984 S2Ext=  1.966 S2=  3.986
 ExtSpn:  IState=    12 X2= 1.001 Y2= 0.001 X2-Y2-1=-1.11D-16
          S2Grnd=  2.019 Ra=  0.000 Rb=  0.000 T= -0.003 S2Ext= -0.003 S2=  2.017
 1PDM for each excited state written to RWF  633
 Ground to excited state transition densities written to RWF  633
 Ground to excited state transition electric dipole moments (Au):
       state          X           Y           Z        Dip. S.      Osc.
         1         0.0000      0.0000      0.0000      0.0000      0.0000
         2         0.0000      0.0000      0.0000      0.0000      0.0000
         3         0.0000      0.0000      0.0000      0.0000      0.0000
         4         0.0000      0.0000      0.0000      0.0000      0.0000
         5         0.0000      0.0000      0.0000      0.0000      0.0000
         6         0.0000      0.0000     -0.8840      0.7815      0.1335
         7         0.0255      0.0220      0.0000      0.0011      0.0003
         8        -0.0220      0.0255      0.0000      0.0011      0.0003
         9         0.0000      0.0000      0.0000      0.0000      0.0000
        10         0.0000      0.0000      0.0000      0.0000      0.0000
        11         0.0000      0.0000      0.1723      0.0297      0.0105
        12        -0.6320     -0.0489      0.0000      0.4018      0.1663
 Ground to excited state transition velocity dipole moments (Au):
       state          X           Y           Z        Dip. S.      Osc.
         1         0.0000      0.0000      0.0000      0.0000      0.0000
         2         0.0000      0.0000      0.0000      0.0000      0.0000
         3         0.0000      0.0000      0.0000      0.0000      0.0000
         4         0.0000      0.0000      0.0000      0.0000      0.0000
         5         0.0000      0.0000      0.0000      0.0000      0.0000
         6         0.0000      0.0000      0.1361      0.0185      0.0482
         7        -0.0020     -0.0018      0.0000      0.0000      0.0000
         8         0.0018     -0.0020      0.0000      0.0000      0.0000
         9         0.0000      0.0000      0.0000      0.0000      0.0000
        10         0.0000      0.0000      0.0000      0.0000      0.0000
        11         0.0000      0.0000     -0.0254      0.0006      0.0008
        12         0.3394      0.0263      0.0000      0.1159      0.1244
 Ground to excited state transition magnetic dipole moments (Au):
       state          X           Y           Z
         1         0.0000      0.0000      0.0000
         2         0.0000      0.0000      0.0000
         3         0.0000      0.0000      0.0000
         4         0.8590      0.9642      0.0000
         5        -0.9642      0.8590      0.0000
         6         0.0000      0.0000      0.0000
         7         0.0000      0.0000      0.0000
         8         0.0000      0.0000      0.0000
         9         0.5611      0.4195      0.0000
        10         0.4195     -0.5611      0.0000
        11         0.0000      0.0000      0.0000
        12         0.0000      0.0000      0.0000
 Ground to excited state transition velocity quadrupole moments (Au):
       state          XX          YY          ZZ          XY          XZ          YZ
         1         0.0000      0.0000      0.0000      0.0000      0.0000      0.0000
         2         0.0000      0.0000      0.0000      0.0000      0.0000      0.0000
         3         0.0000      0.0000      0.0000      0.0000      0.0000      0.0000
         4         0.0000      0.0000      0.0000      0.0000      0.1206     -0.1075
         5         0.0000      0.0000      0.0000      0.0000      0.1075      0.1206
         6         0.0000      0.0000      0.0000      0.0000      0.0000      0.0000
         7         0.0000      0.0000      0.0000      0.0000      0.0000      0.0000
         8         0.0000      0.0000      0.0000      0.0000      0.0000      0.0000
         9         0.0000      0.0000      0.0000      0.0000      0.0215     -0.0288
        10         0.0000      0.0000      0.0000      0.0000     -0.0288     -0.0215
        11         0.0000      0.0000      0.0000      0.0000      0.0000      0.0000
        12         0.0000      0.0000      0.0000      0.0000      0.0000      0.0000
 <0|del|b> * <b|rxdel|0> + <0|del|b> * <b|delr+rdel|0>
 Rotatory Strengths (R) in cgs (10**-40 erg-esu-cm/Gauss)
       state          XX          YY          ZZ    R(velocity)    E-M Angle
         1         0.0000      0.0000      0.0000      0.0000       90.00
         2         0.0000      0.0000      0.0000      0.0000       90.00
         3         0.0000      0.0000      0.0000      0.0000       90.00
         4         0.0000      0.0000      0.0000      0.0000       90.00
         5         0.0000      0.0000      0.0000      0.0000       90.00
         6         0.0000      0.0000      0.0000      0.0000       90.00
         7         0.0000      0.0000      0.0000      0.0000       90.00
         8         0.0000      0.0000      0.0000      0.0000       90.00
         9         0.0000      0.0000      0.0000      0.0000       90.00
        10         0.0000      0.0000      0.0000      0.0000       90.00
        11         0.0000      0.0000      0.0000      0.0000       90.00
        12         0.0000      0.0000      0.0000      0.0000       90.00
 1/2[<0|r|b>*<b|rxdel|0> + (<0|rxdel|b>*<b|r|0>)*]
 Rotatory Strengths (R) in cgs (10**-40 erg-esu-cm/Gauss)
       state          XX          YY          ZZ     R(length)
         1         0.0000      0.0000      0.0000      0.0000
         2         0.0000      0.0000      0.0000      0.0000
         3         0.0000      0.0000      0.0000      0.0000
         4         0.0000      0.0000      0.0000      0.0000
         5         0.0000      0.0000      0.0000      0.0000
         6         0.0000      0.0000      0.0000      0.0000
         7         0.0000      0.0000      0.0000      0.0000
         8         0.0000      0.0000      0.0000      0.0000
         9         0.0000      0.0000      0.0000      0.0000
        10         0.0000      0.0000      0.0000      0.0000
        11         0.0000      0.0000      0.0000      0.0000
        12         0.0000      0.0000      0.0000      0.0000
  1/2[<0|del|b>*<b|r|0> + (<0|r|b>*<b|del|0>)*] (Au)
       state          X           Y           Z        Dip. S.   Osc.(frdel)
         1         0.0000      0.0000      0.0000      0.0000      0.0000
         2         0.0000      0.0000      0.0000      0.0000      0.0000
         3         0.0000      0.0000      0.0000      0.0000      0.0000
         4         0.0000      0.0000      0.0000      0.0000      0.0000
         5         0.0000      0.0000      0.0000      0.0000      0.0000
         6         0.0000      0.0000     -0.1203      0.1203      0.0802
         7        -0.0001      0.0000      0.0000      0.0001      0.0001
         8         0.0000     -0.0001      0.0000      0.0001      0.0001
         9         0.0000      0.0000      0.0000      0.0000      0.0000
        10         0.0000      0.0000      0.0000      0.0000      0.0000
        11         0.0000      0.0000     -0.0044      0.0044      0.0029
        12        -0.2145     -0.0013      0.0000      0.2158      0.1439

 Excitation energies and oscillator strengths:
 
 Excited state symmetry could not be determined.
 Excited State   1:  3.000-?Sym    1.0820 eV 1145.87 nm  f=0.0000  <S**2>=1.999
      6B ->  8B        1.11765
      7B ->  9B       -1.11765
      6B <-  8B        0.86646
      7B <-  9B       -0.86646
 This state for optimization and/or second-order correction.
 Total Energy, E(TD-HF/TD-KS) =  -148.728585138    
 Copying the excited state density for this state as the 1-particle RhoCI density.
 
 Excited state symmetry could not be determined.
 Excited State   2:  3.000-?Sym    1.0820 eV 1145.87 nm  f=0.0000  <S**2>=1.999
      6B ->  9B        1.11765
      7B ->  8B        1.11765
      6B <-  9B        0.86646
      7B <-  8B        0.86646
 
 LASSW sees vector with all elements less than  0.100000000000E-03
 LASSW sees vector with all elements less than  0.100000000000E-03
 LASSW sees vector with all elements less than  0.100000000000E-03
 LASSW sees vector with all elements less than  0.100000000000E-03
 Excited state symmetry could not be determined.
 Excited State   3:  3.009-?Sym    1.6335 eV  758.99 nm  f=0.0000  <S**2>=2.013
      6B ->  9B       -0.96750
      7B ->  8B        0.96750
      6B <-  9B        0.66153
      7B <-  8B       -0.66153
 
 Excited state symmetry could not be determined.
 Excited State   4:  2.990-?Sym    6.2888 eV  197.15 nm  f=0.0000  <S**2>=1.986
      5B ->  8B        0.75426
      5B ->  9B       -0.67198
      6B <- 10B        0.13128
      7B <- 10B       -0.11696
 
 Excited state symmetry could not be determined.
 Excited State   5:  2.990-?Sym    6.2888 eV  197.15 nm  f=0.0000  <S**2>=1.986
      5B ->  8B        0.67198
      5B ->  9B        0.75426
      6B <- 10B        0.11696
      7B <- 10B        0.13128
 
 Excited State   6:  3.021-SGU    6.9719 eV  177.83 nm  f=0.1335  <S**2>=2.031
      7A -> 10A       -0.32898
      5B -> 10B       -0.15850
      6B ->  8B        0.66875
      7B ->  9B        0.66875
      7A <- 10A       -0.15423
 
 Excited state symmetry could not be determined.
 Excited State   7:  3.008-?Sym   11.0775 eV  111.92 nm  f=0.0003  <S**2>=2.012
      8A -> 10A        0.74911
      9A -> 10A        0.64504
 
 Excited state symmetry could not be determined.
 Excited State   8:  3.008-?Sym   11.0775 eV  111.92 nm  f=0.0003  <S**2>=2.012
      8A -> 10A       -0.64504
      9A -> 10A        0.74911
 
 Excited state symmetry could not be determined.
 Excited State   9:  3.812-?Sym   13.6744 eV   90.67 nm  f=0.0000  <S**2>=3.383
      5A -> 10A       -0.13791
      6A -> 10A        0.10311
      6B -> 10B       -0.59656
      7B -> 10B        0.79785
      5B <-  8B       -0.10385
      5B <-  9B        0.13889
 
 Excited state symmetry could not be determined.
 Excited State  10:  3.812-?Sym   13.6744 eV   90.67 nm  f=0.0000  <S**2>=3.383
      5A -> 10A       -0.10311
      6A -> 10A       -0.13791
      6B -> 10B        0.79785
      7B -> 10B        0.59656
      5B <-  8B        0.13889
      5B <-  9B        0.10385
 
 Excited State  11:  4.116-SGU   14.4762 eV   85.65 nm  f=0.0105  <S**2>=3.986
      7A -> 10A       -0.69032
      5B -> 10B        0.71603
      5B <- 10B        0.11046
 
 Excited state symmetry could not be determined.
 Excited State  12:  3.011-?Sym   16.8926 eV   73.40 nm  f=0.1663  <S**2>=2.017
      8A -> 10A       -0.11198
      4B ->  8B        0.98664
 SavETr:  write IOETrn=   770 NScale= 10 NData=  16 NLR=1 NState=   12 LETran=     226.
 Leave Link  914 at Wed Oct 28 13:04:49 2015, MaxMem=    33554432 cpu:               0.1 elap:               0.1
 (Enter /home/gauss/gdvi03p/gdv/l601.exe)
 Copying SCF densities to generalized density rwf, IOpCl= 1 IROHF=0.

 **********************************************************************

            Population analysis using the SCF density.

 **********************************************************************

 Orbital symmetries:
 Alpha Orbitals:
       Occupied  (SGU) (SGG) (SGG) (SGU) (PIU) (PIU) (SGG) (PIG)
                 (PIG)
       Virtual   (SGU) (PIU) (PIU) (SGU) (PIG) (PIG) (SGG) (SGG)
                 (SGU)
 Beta  Orbitals:
       Occupied  (SGU) (SGG) (SGG) (SGU) (SGG) (PIU) (PIU)
       Virtual   (PIG) (PIG) (SGU) (SGU) (PIU) (PIU) (PIG) (PIG)
                 (SGG) (SGG) (SGU)
 The electronic state is 3-SGG.
 Alpha  occ. eigenvalues --  -20.65536 -20.65484  -1.72143  -1.18621  -0.83450
 Alpha  occ. eigenvalues --   -0.83450  -0.72495  -0.55034  -0.55034
 Alpha virt. eigenvalues --    0.43376   1.58280   1.58280   1.64386   1.72496
 Alpha virt. eigenvalues --    1.72496   1.87227   2.53687   3.03005
  Beta  occ. eigenvalues --  -20.60466 -20.60465  -1.58736  -0.98526  -0.66825
  Beta  occ. eigenvalues --   -0.56795  -0.56795
  Beta virt. eigenvalues --    0.11516   0.11516   0.51967   1.67341   1.72813
  Beta virt. eigenvalues --    1.72813   1.85939   1.85939   1.89659   2.60162
  Beta virt. eigenvalues --    3.09542
          Condensed to atoms (all electrons):
               1          2
     1  O    7.914916   0.085084
     2  O    0.085084   7.914916
          Atomic-Atomic Spin Densities.
               1          2
     1  O    1.370137  -0.370137
     2  O   -0.370137   1.370137
 Mulliken charges and spin densities:
               1          2
     1  O    0.000000   1.000000
     2  O    0.000000   1.000000
 Sum of Mulliken charges =   0.00000   2.00000
 Mulliken charges and spin densities with hydrogens summed into heavy atoms:
               1          2
     1  O    0.000000   1.000000
     2  O    0.000000   1.000000
 Electronic spatial extent (au):  <R**2>=             43.5497
 Charge=              0.0000 electrons
 Dipole moment (field-independent basis, Debye):
    X=              0.0000    Y=              0.0000    Z=              0.0000  Tot=              0.0000
 Quadrupole moment (field-independent basis, Debye-Ang):
   XX=             -9.6749   YY=             -9.6749   ZZ=            -10.7621
   XY=              0.0000   XZ=              0.0000   YZ=              0.0000
 Traceless Quadrupole moment (field-independent basis, Debye-Ang):
   XX=              0.3624   YY=              0.3624   ZZ=             -0.7248
   XY=              0.0000   XZ=              0.0000   YZ=              0.0000
 Octapole moment (field-independent basis, Debye-Ang**2):
  XXX=              0.0000  YYY=              0.0000  ZZZ=              0.0000  XYY=              0.0000
  XXY=              0.0000  XXZ=              0.0000  XZZ=              0.0000  YZZ=              0.0000
  YYZ=              0.0000  XYZ=              0.0000
 Hexadecapole moment (field-independent basis, Debye-Ang**3):
 XXXX=             -5.5951 YYYY=             -5.5951 ZZZZ=            -27.1390 XXXY=              0.0000
 XXXZ=              0.0000 YYYX=              0.0000 YYYZ=              0.0000 ZZZX=              0.0000
 ZZZY=              0.0000 XXYY=             -1.8650 XXZZ=             -5.5715 YYZZ=             -5.5715
 XXYZ=              0.0000 YYXZ=              0.0000 ZZXY=              0.0000
 N-N= 2.782461435104D+01 E-N=-4.082029985998D+02  KE= 1.483156358335D+02
 Symmetry AG   KE= 6.886960457099D+01
 Symmetry B1G  KE= 0.000000000000D+00
 Symmetry B2G  KE= 3.037042275960D+00
 Symmetry B3G  KE= 3.037042275960D+00
 Symmetry AU   KE= 0.000000000000D+00
 Symmetry B1U  KE= 6.465678897507D+01
 Symmetry B2U  KE= 4.357578867733D+00
 Symmetry B3U  KE= 4.357578867733D+00
 Symmetry AG   SP=-1.347880140834D-15
 Symmetry B1G  SP= 0.000000000000D+00
 Symmetry B2G  SP= 1.000000000000D+00
 Symmetry B3G  SP= 1.000000000000D+00
 Symmetry AU   SP= 0.000000000000D+00
 Symmetry B1U  SP= 2.432082313319D-15
 Symmetry B2U  SP=-9.645062526431D-16
 Symmetry B3U  SP=-1.137978600241D-15
 Leave Link  601 at Wed Oct 28 13:04:49 2015, MaxMem=    33554432 cpu:               0.0 elap:               0.0
 (Enter /home/gauss/gdvi03p/gdv/l9999.exe)
 Unable to Open any file for archive entry.
 1\1\GINC-MEDUSA\SP\UTD-Full\3-21G\O2(3)\PLESTRAN\28-Oct-2015\0\\#p uhf
 /3-21G td(full,nstates=12)\\O2 6-31G\\0,3\O,0,0.,0.,0.608586\O,0,0.,0.
 ,-0.608586\\Version=ES64L-GDVRevI.03+\State=3-SGG\HF=-148.7683484\MP2=
 -149.0113545\PUHF=-148.7751564\PMP2-0=-149.0149342\EFC=0.\S2=2.019477\
 S2-1=2.000883\S2A=2.000195\RMSD=4.700e-09\PG=D*H [C*(O1.O1)]\\@
 The archive entry for this job was punched.


 ... THE UNIVERSE IS NOT ONLY QUEERER THAN WE SUPPOSE,
 BUT QUEERER THAN WE CAN SUPPOSE ... 

                                   -- J. B. S. HALDANE
 Job cpu time:       0 days  0 hours  0 minutes  0.9 seconds.
 Elapsed time:       0 days  0 hours  0 minutes  0.7 seconds.
 File lengths (MBytes):  RWF=     19 Int=      0 D2E=      0 Chk=      1 Scr=      1
 Normal termination of Gaussian DV at Wed Oct 28 13:04:49 2015.
