 Entering Gaussian System, Link 0=gdv
 Input=O2_6-31G.com
 Output=O2_6-31G.log
 Initial command:
 /home/gauss/gdvi01p/gdv/l1.exe "/home/GauScr/Gau-32730.inp" -scrdir="/home/GauScr/"
 Entering Link 1 = /home/gauss/gdvi01p/gdv/l1.exe PID=     32731.
  
 Copyright (c) 1988,1990,1992,1993,1995,1998,2003,2009,2014,
            Gaussian, Inc.  All Rights Reserved.
  
 This is the private, development version of
 the Gaussian(R) DV system of programs. It is based on
 the Gaussian(R) 09 system (copyright 2009, Gaussian, Inc.),
 the Gaussian(R) 03 system (copyright 2003, Gaussian, Inc.),
 the Gaussian(R) 98 system (copyright 1998, Gaussian, Inc.),
 the Gaussian(R) 94 system (copyright 1995, Gaussian, Inc.),
 the Gaussian 92(TM) system (copyright 1992, Gaussian, Inc.),
 the Gaussian 90(TM) system (copyright 1990, Gaussian, Inc.),
 the Gaussian 88(TM) system (copyright 1988, Gaussian, Inc.),
 the Gaussian 86(TM) system (copyright 1986, Carnegie Mellon
 University), and the Gaussian 82(TM) system (copyright 1983,
 Carnegie Mellon University). Gaussian is a federally registered
 trademark of Gaussian, Inc.
  
 This software contains proprietary and confidential information,
 including trade secrets, belonging to Gaussian, Inc.
  
 This software is provided under written license and may be
 used, copied, transmitted, or stored only in accord with that
 written license.
  
 The following legend is applicable only to US Government
 contracts under FAR:
  
                    RESTRICTED RIGHTS LEGEND
  
 Use, reproduction and disclosure by the US Government is
 subject to restrictions as set forth in subparagraphs (a)
 and (c) of the Commercial Computer Software - Restricted
 Rights clause in FAR 52.227-19.
  
 Gaussian, Inc.
 340 Quinnipiac St., Bldg. 40, Wallingford CT 06492
  
  
 ---------------------------------------------------------------
 Warning -- This program may not be used in any manner that
 competes with the business of Gaussian, Inc. or will provide
 assistance to any competitor of Gaussian, Inc.  The licensee
 of this program is prohibited from giving any competitor of
 Gaussian, Inc. access to this program.  By using this program,
 the user acknowledges that Gaussian, Inc. is engaged in the
 business of creating and licensing software in the field of
 computational chemistry and represents and warrants to the
 licensee that it is not a competitor of Gaussian, Inc. and that
 it will not use this program in any manner prohibited above.
 ---------------------------------------------------------------
  

 Cite this work as:
 Gaussian Development Version, Revision I.01+,
 M. J. Frisch, G. W. Trucks, H. B. Schlegel, G. E. Scuseria, 
 M. A. Robb, J. R. Cheeseman, G. Scalmani, V. Barone, B. Mennucci, 
 G. A. Petersson, H. Nakatsuji, M. Caricato, X. Li, H. P. Hratchian, 
 A. F. Izmaylov, J. Bloino, B. G. Janesko, F. Lipparini, G. Zheng, 
 J. L. Sonnenberg, W. Liang, M. Hada, M. Ehara, K. Toyota, R. Fukuda, 
 J. Hasegawa, M. Ishida, T. Nakajima, Y. Honda, O. Kitao, H. Nakai, 
 T. Vreven, J. A. Montgomery, Jr., J. E. Peralta, F. Ogliaro, 
 M. Bearpark, J. J. Heyd, E. Brothers, K. N. Kudin, V. N. Staroverov, 
 T. Keith, R. Kobayashi, J. Normand, K. Raghavachari, A. Rendell, 
 J. C. Burant, S. S. Iyengar, J. Tomasi, M. Cossi, N. Rega, 
 J. M. Millam, M. Klene, J. E. Knox, J. B. Cross, V. Bakken, 
 C. Adamo, J. Jaramillo, R. Gomperts, R. E. Stratmann, O. Yazyev, 
 A. J. Austin, R. Cammi, C. Pomelli, J. W. Ochterski, R. L. Martin, 
 K. Morokuma, V. G. Zakrzewski, G. A. Voth, P. Salvador, 
 J. J. Dannenberg, S. Dapprich, P. V. Parandekar, N. J. Mayhall, 
 A. D. Daniels, O. Farkas, J. B. Foresman, J. V. Ortiz, 
 J. Cioslowski, and D. J. Fox, Gaussian, Inc., Wallingford CT, 2010.
 
 *******************************************
 Gaussian DV:  ES64L-GDVRevI.01+ 11-Sep-2014
                 22-Sep-2015 
 *******************************************
 ------------------------------------
 #p uhf/6-31G gfinput pop=full nosymm
 ------------------------------------
 1/38=1,172=1/1;
 2/12=2,15=1,17=6,18=5,40=1/2;
 3/5=1,6=6,11=2,24=10,25=1,30=1,116=2/1,2,3;
 4//1;
 5/5=2,38=5/2;
 6/7=3,28=1/1;
 99/5=1,9=1/99;
 Leave Link    1 at Tue Sep 22 13:39:40 2015, MaxMem=           0 cpu:               0.0 elap:               0.0
 (Enter /home/gauss/gdvi01p/gdv/l101.exe)
 --------
 O2 6-31G
 --------
 Symbolic Z-matrix:
 Charge =  0 Multiplicity = 3
 O                     0.        0.        0.60859 
 O                     0.        0.       -0.60859 
 
 ITRead=  0  0
 MicOpt= -1 -1
 NAtoms=      2 NQM=        2 NQMF=       0 NMMI=      0 NMMIF=      0
                NMic=       0 NMicF=      0.
                    Isotopes and Nuclear Properties:
 (Nuclear quadrupole moments (NQMom) in fm**2, nuclear magnetic moments (NMagM)
  in nuclear magnetons)

  Atom         1           2
 IAtWgt=          16          16
 AtmWgt=  15.9949146  15.9949146
 NucSpn=           0           0
 AtZEff=   0.0000000   0.0000000
 NQMom=    0.0000000   0.0000000
 NMagM=    0.0000000   0.0000000
 AtZNuc=   8.0000000   8.0000000
 Leave Link  101 at Tue Sep 22 13:39:40 2015, MaxMem=    33554432 cpu:               0.1 elap:               0.1
 (Enter /home/gauss/gdvi01p/gdv/l202.exe)
                          Input orientation:                          
 ---------------------------------------------------------------------
 Center     Atomic      Atomic             Coordinates (Angstroms)
 Number     Number       Type             X           Y           Z
 ---------------------------------------------------------------------
      1          8           0        0.000000    0.000000    0.608586
      2          8           0        0.000000    0.000000   -0.608586
 ---------------------------------------------------------------------
 Symmetry turned off by external request.
 Stoichiometry    O2(3)
 Framework group  D*H[C*(O.O)]
 Deg. of freedom     1
 Full point group                 D*H     NOp   8
 Rotational constants (GHZ):      0.0000000     42.6541569     42.6541569
 Leave Link  202 at Tue Sep 22 13:39:40 2015, MaxMem=    33554432 cpu:               0.0 elap:               0.0
 (Enter /home/gauss/gdvi01p/gdv/l301.exe)
 Standard basis: 6-31G (6D, 7F)
 Ernie: Thresh=  0.10000D-02 Tol=  0.10000D-05 Strict=F.
 AO basis set in the form of general basis input (Overlap normalization):
      1 0
 S   6 1.00       0.000000000000
      0.5484671660D+04  0.1831074430D-02
      0.8252349460D+03  0.1395017220D-01
      0.1880469580D+03  0.6844507810D-01
      0.5296450000D+02  0.2327143360D+00
      0.1689757040D+02  0.4701928980D+00
      0.5799635340D+01  0.3585208530D+00
 SP   3 1.00       0.000000000000
      0.1553961625D+02 -0.1107775495D+00  0.7087426823D-01
      0.3599933586D+01 -0.1480262627D+00  0.3397528391D+00
      0.1013761750D+01  0.1130767015D+01  0.7271585773D+00
 SP   1 1.00       0.000000000000
      0.2700058226D+00  0.1000000000D+01  0.1000000000D+01
 ****
      2 0
 S   6 1.00       0.000000000000
      0.5484671660D+04  0.1831074430D-02
      0.8252349460D+03  0.1395017220D-01
      0.1880469580D+03  0.6844507810D-01
      0.5296450000D+02  0.2327143360D+00
      0.1689757040D+02  0.4701928980D+00
      0.5799635340D+01  0.3585208530D+00
 SP   3 1.00       0.000000000000
      0.1553961625D+02 -0.1107775495D+00  0.7087426823D-01
      0.3599933586D+01 -0.1480262627D+00  0.3397528391D+00
      0.1013761750D+01  0.1130767015D+01  0.7271585773D+00
 SP   1 1.00       0.000000000000
      0.2700058226D+00  0.1000000000D+01  0.1000000000D+01
 ****

    18 basis functions,    44 primitive gaussians,    18 cartesian basis functions
     9 alpha electrons        7 beta electrons
       nuclear repulsion energy        27.8246143510 Hartrees.
 IExCor=    0 DFT=F Ex=HF Corr=None ExCW=0 ScaHFX=  1.000000
 ScaDFX=  1.000000  1.000000  1.000000  1.000000 ScalE2=  1.000000  1.000000
 IRadAn=      0 IRanWt=     -1 IRanGd=            0 ICorTp=0 IEmpDi=  4
 NAtoms=    2 NActive=    2 NUniq=    2 SFac= 1.00D+00 NAtFMM=   60 NAOKFM=F Big=F
 Integral buffers will be    131072 words long.
 Raffenetti 2 integral format.
 Two-electron integral symmetry is turned off.
 Leave Link  301 at Tue Sep 22 13:39:40 2015, MaxMem=    33554432 cpu:               0.0 elap:               0.1
 (Enter /home/gauss/gdvi01p/gdv/l302.exe)
 NPDir=0 NMtPBC=     1 NCelOv=     1 NCel=       1 NClECP=     1 NCelD=      1
         NCelK=      1 NCelE2=     1 NClLst=     1 CellRange=     0.0.
 One-electron integrals computed using PRISM.
 One-electron integral symmetry used in STVInt
 NBasis=    18 RedAO= T EigKep=  2.35D-02  NBF=    18
 NBsUse=    18 1.00D-06 EigRej= -1.00D+00 NBFU=    18
 Leave Link  302 at Tue Sep 22 13:39:41 2015, MaxMem=    33554432 cpu:               0.1 elap:               0.1
 (Enter /home/gauss/gdvi01p/gdv/l303.exe)
 DipDrv:  MaxL=1.
 Leave Link  303 at Tue Sep 22 13:39:41 2015, MaxMem=    33554432 cpu:               0.0 elap:               0.0
 (Enter /home/gauss/gdvi01p/gdv/l401.exe)
 ExpMin= 2.70D-01 ExpMax= 5.48D+03 ExpMxC= 8.25D+02 IAcc=1 IRadAn=         1 AccDes= 0.00D+00
 Harris functional with IExCor=  205 and IRadAn=       1 diagonalized for initial guess.
 HarFok:  IExCor=  205 AccDes= 0.00D+00 IRadAn=         1 IDoV= 1 UseB2=F ITyADJ=14
 ICtDFT=  3500011 ScaDFX=  1.000000  1.000000  1.000000  1.000000
 FoFCou: FMM=F IPFlag=           0 FMFlag=      100000 FMFlg1=           0
         NFxFlg=           0 DoJE=T BraDBF=F KetDBF=T FulRan=T
         wScrn=  0.000000 ICntrl=       500 IOpCl=  0 I1Cent=   200000004 NGrid=           0
         NMat0=    1 NMatS0=      1 NMatT0=    0 NMatD0=    1 NMtDS0=    0 NMtDT0=    0
 Symmetry not used in FoFCou.
 Harris En= -149.508215910217    
 JPrj=0 DoOrth=F DoCkMO=F.
 Initial guess <Sx>= 0.0000 <Sy>= 0.0000 <Sz>= 1.0000 <S**2>= 2.0000 S= 1.0000
 Leave Link  401 at Tue Sep 22 13:39:41 2015, MaxMem=    33554432 cpu:               0.1 elap:               0.1
 (Enter /home/gauss/gdvi01p/gdv/l502.exe)
 Keep R1 and R2 ints in memory in canonical form, NReq=834600.
 FoFCou: FMM=F IPFlag=           0 FMFlag=           0 FMFlg1=           0
         NFxFlg=           0 DoJE=F BraDBF=F KetDBF=F FulRan=T
         wScrn=  0.000000 ICntrl=       600 IOpCl=  0 I1Cent=           0 NGrid=           0
         NMat0=    1 NMatS0=    171 NMatT0=    0 NMatD0=    1 NMtDS0=    0 NMtDT0=    0
 Symmetry not used in FoFCou.
 Two-electron integral symmetry not used.
 UHF open shell SCF:
 Using DIIS extrapolation, IDIIS=  1040.
 NGot=    33554432 LenX=    33523688 LenY=    33522806
 Requested convergence on RMS density matrix=1.00D-08 within 128 cycles.
 Requested convergence on MAX density matrix=1.00D-06.
 Requested convergence on             energy=1.00D-06.
 No special actions if energy rises.

 Cycle   1  Pass 1  IDiag  1:
 E= -149.517879313440    
 DIIS: error= 6.06D-02 at cycle   1 NSaved=   1.
 NSaved= 1 IEnMin= 1 EnMin= -149.517879313440     IErMin= 1 ErrMin= 6.06D-02
 ErrMax= 6.06D-02  0.00D+00 EMaxC= 1.00D-01 BMatC= 1.74D-01 BMatP= 1.74D-01
 IDIUse=3 WtCom= 3.94D-01 WtEn= 6.06D-01
 Coeff-Com:  0.100D+01
 Coeff-En:   0.100D+01
 Coeff:      0.100D+01
 Gap=     0.946 Goal=   None    Shift=    0.000
 Gap=     0.676 Goal=   None    Shift=    0.000
 GapD=    0.676 DampG=2.000 DampE=0.500 DampFc=1.0000 IDamp=-1.
 RMSDP=7.82D-03 MaxDP=5.15D-02              OVMax= 7.13D-03

 Cycle   2  Pass 1  IDiag  1:
 E= -149.540920672963     Delta-E=       -0.023041359523 Rises=F Damp=F
 DIIS: error= 1.39D-02 at cycle   2 NSaved=   2.
 NSaved= 2 IEnMin= 2 EnMin= -149.540920672963     IErMin= 2 ErrMin= 1.39D-02
 ErrMax= 1.39D-02  0.00D+00 EMaxC= 1.00D-01 BMatC= 8.54D-03 BMatP= 1.74D-01
 IDIUse=3 WtCom= 8.61D-01 WtEn= 1.39D-01
 Coeff-Com: -0.119D+00 0.112D+01
 Coeff-En:   0.000D+00 0.100D+01
 Coeff:     -0.102D+00 0.110D+01
 Gap=     0.952 Goal=   None    Shift=    0.000
 Gap=     0.667 Goal=   None    Shift=    0.000
 RMSDP=2.78D-03 MaxDP=1.35D-02 DE=-2.30D-02 OVMax= 3.80D-03

 Cycle   3  Pass 1  IDiag  1:
 E= -149.544402361654     Delta-E=       -0.003481688691 Rises=F Damp=F
 DIIS: error= 4.70D-03 at cycle   3 NSaved=   3.
 NSaved= 3 IEnMin= 3 EnMin= -149.544402361654     IErMin= 3 ErrMin= 4.70D-03
 ErrMax= 4.70D-03  0.00D+00 EMaxC= 1.00D-01 BMatC= 1.27D-03 BMatP= 8.54D-03
 IDIUse=3 WtCom= 9.53D-01 WtEn= 4.70D-02
 Coeff-Com:  0.330D-01-0.688D+00 0.166D+01
 Coeff-En:   0.000D+00 0.000D+00 0.100D+01
 Coeff:      0.314D-01-0.656D+00 0.162D+01
 Gap=     0.957 Goal=   None    Shift=    0.000
 Gap=     0.666 Goal=   None    Shift=    0.000
 RMSDP=1.64D-03 MaxDP=9.19D-03 DE=-3.48D-03 OVMax= 5.11D-03

 Cycle   4  Pass 1  IDiag  1:
 E= -149.545029060310     Delta-E=       -0.000626698657 Rises=F Damp=F
 DIIS: error= 7.25D-04 at cycle   4 NSaved=   4.
 NSaved= 4 IEnMin= 4 EnMin= -149.545029060310     IErMin= 4 ErrMin= 7.25D-04
 ErrMax= 7.25D-04  0.00D+00 EMaxC= 1.00D-01 BMatC= 1.95D-05 BMatP= 1.27D-03
 IDIUse=3 WtCom= 9.93D-01 WtEn= 7.25D-03
 Coeff-Com: -0.762D-02 0.217D+00-0.612D+00 0.140D+01
 Coeff-En:   0.000D+00 0.000D+00 0.000D+00 0.100D+01
 Coeff:     -0.757D-02 0.216D+00-0.608D+00 0.140D+01
 Gap=     0.958 Goal=   None    Shift=    0.000
 Gap=     0.666 Goal=   None    Shift=    0.000
 RMSDP=2.15D-04 MaxDP=1.68D-03 DE=-6.27D-04 OVMax= 1.62D-03

 Cycle   5  Pass 1  IDiag  1:
 E= -149.545037424890     Delta-E=       -0.000008364579 Rises=F Damp=F
 DIIS: error= 8.29D-05 at cycle   5 NSaved=   5.
 NSaved= 5 IEnMin= 5 EnMin= -149.545037424890     IErMin= 5 ErrMin= 8.29D-05
 ErrMax= 8.29D-05  0.00D+00 EMaxC= 1.00D-01 BMatC= 3.18D-07 BMatP= 1.95D-05
 IDIUse=1 WtCom= 1.00D+00 WtEn= 0.00D+00
 Coeff-Com: -0.215D-02 0.489D-01-0.131D+00 0.212D+00 0.872D+00
 Coeff:     -0.215D-02 0.489D-01-0.131D+00 0.212D+00 0.872D+00
 Gap=     0.958 Goal=   None    Shift=    0.000
 Gap=     0.666 Goal=   None    Shift=    0.000
 RMSDP=1.89D-05 MaxDP=9.96D-05 DE=-8.36D-06 OVMax= 8.52D-05

 Cycle   6  Pass 1  IDiag  1:
 E= -149.545037510215     Delta-E=       -0.000000085325 Rises=F Damp=F
 DIIS: error= 1.65D-05 at cycle   6 NSaved=   6.
 NSaved= 6 IEnMin= 6 EnMin= -149.545037510215     IErMin= 6 ErrMin= 1.65D-05
 ErrMax= 1.65D-05  0.00D+00 EMaxC= 1.00D-01 BMatC= 1.17D-08 BMatP= 3.18D-07
 IDIUse=1 WtCom= 1.00D+00 WtEn= 0.00D+00
 Coeff-Com:  0.841D-03-0.203D-01 0.551D-01-0.106D+00-0.228D+00 0.130D+01
 Coeff:      0.841D-03-0.203D-01 0.551D-01-0.106D+00-0.228D+00 0.130D+01
 Gap=     0.958 Goal=   None    Shift=    0.000
 Gap=     0.666 Goal=   None    Shift=    0.000
 RMSDP=6.30D-06 MaxDP=4.03D-05 DE=-8.53D-08 OVMax= 2.44D-05

 Cycle   7  Pass 1  IDiag  1:
 E= -149.545037514505     Delta-E=       -0.000000004290 Rises=F Damp=F
 DIIS: error= 3.36D-06 at cycle   7 NSaved=   7.
 NSaved= 7 IEnMin= 7 EnMin= -149.545037514505     IErMin= 7 ErrMin= 3.36D-06
 ErrMax= 3.36D-06  0.00D+00 EMaxC= 1.00D-01 BMatC= 3.22D-10 BMatP= 1.17D-08
 IDIUse=1 WtCom= 1.00D+00 WtEn= 0.00D+00
 Coeff-Com: -0.342D-03 0.837D-02-0.228D-01 0.451D-01 0.808D-01-0.573D+00
 Coeff-Com:  0.146D+01
 Coeff:     -0.342D-03 0.837D-02-0.228D-01 0.451D-01 0.808D-01-0.573D+00
 Coeff:      0.146D+01
 Gap=     0.958 Goal=   None    Shift=    0.000
 Gap=     0.666 Goal=   None    Shift=    0.000
 RMSDP=9.58D-07 MaxDP=8.31D-06 DE=-4.29D-09 OVMax= 6.85D-06

 Cycle   8  Pass 1  IDiag  1:
 E= -149.545037514650     Delta-E=       -0.000000000145 Rises=F Damp=F
 DIIS: error= 5.72D-07 at cycle   8 NSaved=   8.
 NSaved= 8 IEnMin= 8 EnMin= -149.545037514650     IErMin= 8 ErrMin= 5.72D-07
 ErrMax= 5.72D-07  0.00D+00 EMaxC= 1.00D-01 BMatC= 9.39D-12 BMatP= 3.22D-10
 IDIUse=1 WtCom= 1.00D+00 WtEn= 0.00D+00
 Coeff-Com:  0.982D-04-0.245D-02 0.670D-02-0.136D-01-0.202D-01 0.162D+00
 Coeff-Com: -0.540D+00 0.141D+01
 Coeff:      0.982D-04-0.245D-02 0.670D-02-0.136D-01-0.202D-01 0.162D+00
 Coeff:     -0.540D+00 0.141D+01
 Gap=     0.958 Goal=   None    Shift=    0.000
 Gap=     0.666 Goal=   None    Shift=    0.000
 RMSDP=1.87D-07 MaxDP=1.61D-06 DE=-1.45D-10 OVMax= 1.37D-06

 Cycle   9  Pass 1  IDiag  1:
 E= -149.545037514654     Delta-E=       -0.000000000004 Rises=F Damp=F
 DIIS: error= 5.14D-08 at cycle   9 NSaved=   9.
 NSaved= 9 IEnMin= 9 EnMin= -149.545037514654     IErMin= 9 ErrMin= 5.14D-08
 ErrMax= 5.14D-08  0.00D+00 EMaxC= 1.00D-01 BMatC= 1.62D-13 BMatP= 9.39D-12
 IDIUse=1 WtCom= 1.00D+00 WtEn= 0.00D+00
 Coeff-Com: -0.901D-05 0.238D-03-0.656D-03 0.140D-02 0.122D-02-0.137D-01
 Coeff-Com:  0.627D-01-0.236D+00 0.118D+01
 Coeff:     -0.901D-05 0.238D-03-0.656D-03 0.140D-02 0.122D-02-0.137D-01
 Coeff:      0.627D-01-0.236D+00 0.118D+01
 Gap=     0.958 Goal=   None    Shift=    0.000
 Gap=     0.666 Goal=   None    Shift=    0.000
 RMSDP=1.81D-08 MaxDP=9.38D-08 DE=-4.29D-12 OVMax= 1.25D-07

 Cycle  10  Pass 1  IDiag  1:
 E= -149.545037514654     Delta-E=        0.000000000000 Rises=F Damp=F
 DIIS: error= 6.23D-09 at cycle  10 NSaved=  10.
 NSaved=10 IEnMin=10 EnMin= -149.545037514654     IErMin=10 ErrMin= 6.23D-09
 ErrMax= 6.23D-09  0.00D+00 EMaxC= 1.00D-01 BMatC= 2.31D-15 BMatP= 1.62D-13
 IDIUse=1 WtCom= 1.00D+00 WtEn= 0.00D+00
 Coeff-Com:  0.442D-06-0.143D-04 0.398D-04-0.984D-04 0.597D-04 0.397D-03
 Coeff-Com: -0.470D-02 0.213D-01-0.219D+00 0.120D+01
 Coeff:      0.442D-06-0.143D-04 0.398D-04-0.984D-04 0.597D-04 0.397D-03
 Coeff:     -0.470D-02 0.213D-01-0.219D+00 0.120D+01
 Gap=     0.958 Goal=   None    Shift=    0.000
 Gap=     0.666 Goal=   None    Shift=    0.000
 RMSDP=2.35D-09 MaxDP=1.49D-08 DE=-1.14D-13 OVMax= 7.36D-09

 SCF Done:  E(UHF) =  -149.545037515     A.U. after   10 cycles
            NFock= 10  Conv=0.24D-08     -V/T= 2.0002
 <Sx>= 0.0000 <Sy>= 0.0000 <Sz>= 1.0000 <S**2>= 2.0339 S= 1.0113
 <L.S>= 0.000000000000E+00
 KE= 1.495118985784D+02 PE=-4.102464042686D+02 EE= 8.336485382449D+01
 Annihilation of the first spin contaminant:
 S**2 before annihilation     2.0339,   after     2.0006
 Leave Link  502 at Tue Sep 22 13:39:41 2015, MaxMem=    33554432 cpu:               0.0 elap:               0.1
 (Enter /home/gauss/gdvi01p/gdv/l601.exe)
 Copying SCF densities to generalized density rwf, IOpCl= 1 IROHF=0.

 **********************************************************************

            Population analysis using the SCF density.

 **********************************************************************

 Alpha  occ. eigenvalues --  -20.77410 -20.77363  -1.75215  -1.20901  -0.85266
 Alpha  occ. eigenvalues --   -0.85266  -0.75076  -0.57528  -0.57528
 Alpha virt. eigenvalues --    0.38233   1.01478   1.01478   1.07679   1.11198
 Alpha virt. eigenvalues --    1.12782   1.12782   1.23959   1.66650
  Beta  occ. eigenvalues --  -20.71875 -20.71766  -1.60762  -1.00042  -0.68865
  Beta  occ. eigenvalues --   -0.57808  -0.57808
  Beta virt. eigenvalues --    0.08836   0.08836   0.46294   1.10948   1.14063
  Beta virt. eigenvalues --    1.14063   1.15018   1.25038   1.25038   1.25686
  Beta virt. eigenvalues --    1.71409
     Alpha Molecular Orbital Coefficients:
                           1         2         3         4         5
                           O         O         O         O         O
     Eigenvalues --   -20.77410 -20.77363  -1.75215  -1.20901  -0.85266
   1 1   O  1S          0.70395   0.70391  -0.15699  -0.16854   0.00000
   2        2S          0.01572   0.01665   0.38431   0.40813   0.00000
   3        2PX         0.00000   0.00000   0.00000   0.00000  -0.08353
   4        2PY         0.00000   0.00000   0.00000   0.00000   0.48146
   5        2PZ        -0.00131  -0.00174  -0.16285   0.11132   0.00000
   6        3S         -0.00301  -0.00858   0.23485   0.52988   0.00000
   7        3PX         0.00000   0.00000   0.00000   0.00000  -0.04238
   8        3PY         0.00000   0.00000   0.00000   0.00000   0.24425
   9        3PZ         0.00082   0.00361  -0.03609  -0.03581   0.00000
  10 2   O  1S          0.70395  -0.70391  -0.15699   0.16854   0.00000
  11        2S          0.01572  -0.01665   0.38431  -0.40813   0.00000
  12        2PX         0.00000   0.00000   0.00000   0.00000  -0.08353
  13        2PY         0.00000   0.00000   0.00000   0.00000   0.48146
  14        2PZ         0.00131  -0.00174   0.16285   0.11132   0.00000
  15        3S         -0.00301   0.00858   0.23485  -0.52988   0.00000
  16        3PX         0.00000   0.00000   0.00000   0.00000  -0.04238
  17        3PY         0.00000   0.00000   0.00000   0.00000   0.24425
  18        3PZ        -0.00082   0.00361   0.03609  -0.03581   0.00000
                           6         7         8         9        10
                           O         O         O         O         V
     Eigenvalues --    -0.85266  -0.75076  -0.57528  -0.57528   0.38233
   1 1   O  1S          0.00000  -0.05207   0.00000   0.00000  -0.08652
   2        2S          0.00000   0.11053   0.00000   0.00000   0.21812
   3        2PX         0.48146   0.00000   0.52072  -0.18407   0.00000
   4        2PY         0.08353   0.00000   0.18407   0.52072   0.00000
   5        2PZ         0.00000   0.48138   0.00000   0.00000  -0.47263
   6        3S          0.00000   0.24127   0.00000   0.00000   1.18681
   7        3PX         0.24425   0.00000   0.34557  -0.12215   0.00000
   8        3PY         0.04238   0.00000   0.12215   0.34557   0.00000
   9        3PZ         0.00000   0.22774   0.00000   0.00000  -1.15896
  10 2   O  1S          0.00000  -0.05207   0.00000   0.00000   0.08652
  11        2S          0.00000   0.11053   0.00000   0.00000  -0.21812
  12        2PX         0.48146   0.00000  -0.52072   0.18407   0.00000
  13        2PY         0.08353   0.00000  -0.18407  -0.52072   0.00000
  14        2PZ         0.00000  -0.48138   0.00000   0.00000  -0.47263
  15        3S          0.00000   0.24127   0.00000   0.00000  -1.18681
  16        3PX         0.24425   0.00000  -0.34557   0.12215   0.00000
  17        3PY         0.04238   0.00000  -0.12215  -0.34557   0.00000
  18        3PZ         0.00000  -0.22774   0.00000   0.00000  -1.15896
                          11        12        13        14        15
                           V         V         V         V         V
     Eigenvalues --     1.01478   1.01478   1.07679   1.11198   1.12782
   1 1   O  1S          0.00000   0.00000   0.02130   0.05989   0.00000
   2        2S          0.00000   0.00000  -0.15033  -0.68553   0.00000
   3        2PX        -0.21609   0.61841   0.00000   0.00000  -0.61429
   4        2PY         0.61841   0.21609   0.00000   0.00000   0.06373
   5        2PZ         0.00000   0.00000  -0.69950  -0.45654   0.00000
   6        3S          0.00000   0.00000  -0.86052   0.76278   0.00000
   7        3PX         0.21001  -0.60101   0.00000   0.00000   1.06913
   8        3PY        -0.60101  -0.21001   0.00000   0.00000  -0.11091
   9        3PZ         0.00000   0.00000   1.32469   0.59003   0.00000
  10 2   O  1S          0.00000   0.00000  -0.02130   0.05989   0.00000
  11        2S          0.00000   0.00000   0.15033  -0.68553   0.00000
  12        2PX        -0.21609   0.61841   0.00000   0.00000   0.61429
  13        2PY         0.61841   0.21609   0.00000   0.00000  -0.06373
  14        2PZ         0.00000   0.00000  -0.69950   0.45654   0.00000
  15        3S          0.00000   0.00000   0.86052   0.76278   0.00000
  16        3PX         0.21001  -0.60101   0.00000   0.00000  -1.06913
  17        3PY        -0.60101  -0.21001   0.00000   0.00000   0.11091
  18        3PZ         0.00000   0.00000   1.32469  -0.59003   0.00000
                          16        17        18
                           V         V         V
     Eigenvalues --     1.12782   1.23959   1.66650
   1 1   O  1S          0.00000  -0.03696   0.02364
   2        2S          0.00000   0.83758  -1.24313
   3        2PX        -0.06373   0.00000   0.00000
   4        2PY        -0.61429   0.00000   0.00000
   5        2PZ         0.00000  -0.44125   0.08453
   6        3S          0.00000  -0.52404   3.51677
   7        3PX         0.11091   0.00000   0.00000
   8        3PY         1.06913   0.00000   0.00000
   9        3PZ         0.00000   0.63078  -1.79772
  10 2   O  1S          0.00000  -0.03696  -0.02364
  11        2S          0.00000   0.83758   1.24313
  12        2PX         0.06373   0.00000   0.00000
  13        2PY         0.61429   0.00000   0.00000
  14        2PZ         0.00000   0.44125   0.08453
  15        3S          0.00000  -0.52404  -3.51677
  16        3PX        -0.11091   0.00000   0.00000
  17        3PY        -1.06913   0.00000   0.00000
  18        3PZ         0.00000  -0.63078  -1.79772
     Beta Molecular Orbital Coefficients:
                           1         2         3         4         5
                           O         O         O         O         O
     Eigenvalues --   -20.71875 -20.71766  -1.60762  -1.00042  -0.68865
   1 1   O  1S          0.70442   0.70446  -0.15075  -0.15941  -0.05723
   2        2S          0.01345   0.01426   0.34658   0.37476   0.10962
   3        2PX         0.00000   0.00000   0.00000   0.00000   0.00000
   4        2PY         0.00000   0.00000   0.00000   0.00000   0.00000
   5        2PZ        -0.00143  -0.00160  -0.18536   0.13996   0.46259
   6        3S         -0.00256  -0.00850   0.24962   0.47293   0.27220
   7        3PX         0.00000   0.00000   0.00000   0.00000   0.00000
   8        3PY         0.00000   0.00000   0.00000   0.00000   0.00000
   9        3PZ         0.00079   0.00380  -0.04856   0.04246   0.23901
  10 2   O  1S          0.70442  -0.70446  -0.15075   0.15941  -0.05723
  11        2S          0.01345  -0.01426   0.34658  -0.37476   0.10962
  12        2PX         0.00000   0.00000   0.00000   0.00000   0.00000
  13        2PY         0.00000   0.00000   0.00000   0.00000   0.00000
  14        2PZ         0.00143  -0.00160   0.18536   0.13996  -0.46259
  15        3S         -0.00256   0.00850   0.24962  -0.47293   0.27220
  16        3PX         0.00000   0.00000   0.00000   0.00000   0.00000
  17        3PY         0.00000   0.00000   0.00000   0.00000   0.00000
  18        3PZ        -0.00079   0.00380   0.04856   0.04246  -0.23901
                           6         7         8         9        10
                           O         O         V         V         V
     Eigenvalues --    -0.57808  -0.57808   0.08836   0.08836   0.46294
   1 1   O  1S          0.00000   0.00000   0.00000   0.00000  -0.09804
   2        2S          0.00000   0.00000   0.00000   0.00000   0.22505
   3        2PX         0.31207   0.26548   0.34994  -0.28761   0.00000
   4        2PY        -0.26548   0.31207   0.28761   0.34994   0.00000
   5        2PZ         0.00000   0.00000   0.00000   0.00000  -0.43472
   6        3S          0.00000   0.00000   0.00000   0.00000   1.33324
   7        3PX         0.24356   0.20720   0.40501  -0.33287   0.00000
   8        3PY        -0.20720   0.24356   0.33287   0.40501   0.00000
   9        3PZ         0.00000   0.00000   0.00000   0.00000  -1.24722
  10 2   O  1S          0.00000   0.00000   0.00000   0.00000   0.09804
  11        2S          0.00000   0.00000   0.00000   0.00000  -0.22505
  12        2PX         0.31207   0.26548  -0.34994   0.28761   0.00000
  13        2PY        -0.26548   0.31207  -0.28761  -0.34994   0.00000
  14        2PZ         0.00000   0.00000   0.00000   0.00000  -0.43472
  15        3S          0.00000   0.00000   0.00000   0.00000  -1.33324
  16        3PX         0.24356   0.20720  -0.40501   0.33287   0.00000
  17        3PY        -0.20720   0.24356  -0.33287  -0.40501   0.00000
  18        3PZ         0.00000   0.00000   0.00000   0.00000  -1.24722
                          11        12        13        14        15
                           V         V         V         V         V
     Eigenvalues --     1.10948   1.14063   1.14063   1.15018   1.25038
   1 1   O  1S          0.01882   0.00000   0.00000   0.05679   0.00000
   2        2S         -0.13284   0.00000   0.00000  -0.55646   0.00000
   3        2PX         0.00000   0.69665   0.12131   0.00000  -0.67325
   4        2PY         0.00000  -0.12131   0.69665   0.00000  -0.16732
   5        2PZ        -0.71853   0.00000   0.00000  -0.52765   0.00000
   6        3S         -0.85242   0.00000   0.00000   0.66210   0.00000
   7        3PX         0.00000  -0.59480  -0.10357   0.00000   0.97766
   8        3PY         0.00000   0.10357  -0.59480   0.00000   0.24297
   9        3PZ         1.29717   0.00000   0.00000   0.67577   0.00000
  10 2   O  1S         -0.01882   0.00000   0.00000   0.05679   0.00000
  11        2S          0.13284   0.00000   0.00000  -0.55646   0.00000
  12        2PX         0.00000   0.69665   0.12131   0.00000   0.67325
  13        2PY         0.00000  -0.12131   0.69665   0.00000   0.16732
  14        2PZ        -0.71853   0.00000   0.00000   0.52765   0.00000
  15        3S          0.85242   0.00000   0.00000   0.66210   0.00000
  16        3PX         0.00000  -0.59480  -0.10357   0.00000  -0.97766
  17        3PY         0.00000   0.10357  -0.59480   0.00000  -0.24297
  18        3PZ         1.29717   0.00000   0.00000  -0.67577   0.00000
                          16        17        18
                           V         V         V
     Eigenvalues --     1.25038   1.25686   1.71409
   1 1   O  1S          0.00000  -0.04918   0.02732
   2        2S          0.00000   0.94323  -1.25437
   3        2PX         0.16732   0.00000   0.00000
   4        2PY        -0.67325   0.00000   0.00000
   5        2PZ         0.00000  -0.36690   0.08583
   6        3S          0.00000  -0.62852   3.47414
   7        3PX        -0.24297   0.00000   0.00000
   8        3PY         0.97766   0.00000   0.00000
   9        3PZ         0.00000   0.53201  -1.75814
  10 2   O  1S          0.00000  -0.04918  -0.02732
  11        2S          0.00000   0.94323   1.25437
  12        2PX        -0.16732   0.00000   0.00000
  13        2PY         0.67325   0.00000   0.00000
  14        2PZ         0.00000   0.36690   0.08583
  15        3S          0.00000  -0.62852  -3.47414
  16        3PX         0.24297   0.00000   0.00000
  17        3PY        -0.97766   0.00000   0.00000
  18        3PZ         0.00000  -0.53201  -1.75814
     Alpha Density Matrix:
                           1         2         3         4         5
   1 1   O  1S          1.04679
   2        2S         -0.11209   0.32701
   3        2PX         0.00000   0.00000   0.54381
   4        2PY         0.00000   0.00000   0.00000   0.54381
   5        2PZ        -0.02041   0.03601   0.00000   0.00000   0.27064
   6        3S         -0.14690   0.33299   0.00000   0.00000   0.13690
   7        3PX         0.00000   0.00000   0.32357   0.00000   0.00000
   8        3PY         0.00000   0.00000   0.00000   0.32357   0.00000
   9        3PZ         0.00296  -0.00324   0.00000   0.00000   0.11151
  10 2   O  1S         -0.00099   0.00205   0.00000   0.00000   0.01957
  11        2S          0.00205  -0.00669   0.00000   0.00000  -0.05480
  12        2PX         0.00000   0.00000  -0.06625   0.00000   0.00000
  13        2PY         0.00000   0.00000   0.00000  -0.06625   0.00000
  14        2PZ        -0.01957   0.05480   0.00000   0.00000  -0.24585
  15        3S          0.04379  -0.09924   0.00000   0.00000   0.01890
  16        3PX         0.00000   0.00000  -0.08129   0.00000   0.00000
  17        3PY         0.00000   0.00000   0.00000  -0.08129   0.00000
  18        3PZ         0.01419  -0.02587   0.00000   0.00000  -0.11950
                           6         7         8         9        10
   6        3S          0.39422
   7        3PX         0.00000   0.19579
   8        3PY         0.00000   0.00000   0.19579
   9        3PZ         0.02746   0.00000   0.00000   0.05446
  10 2   O  1S          0.04379   0.00000   0.00000  -0.01419   1.04679
  11        2S         -0.09924   0.00000   0.00000   0.02587  -0.11209
  12        2PX         0.00000  -0.08129   0.00000   0.00000   0.00000
  13        2PY         0.00000   0.00000  -0.08129   0.00000   0.00000
  14        2PZ        -0.01890   0.00000   0.00000  -0.11950   0.02041
  15        3S         -0.16747   0.00000   0.00000   0.06547  -0.14690
  16        3PX         0.00000  -0.07288   0.00000   0.00000   0.00000
  17        3PY         0.00000   0.00000  -0.07288   0.00000   0.00000
  18        3PZ        -0.06547   0.00000   0.00000  -0.05187  -0.00296
                          11        12        13        14        15
  11        2S          0.32701
  12        2PX         0.00000   0.54381
  13        2PY         0.00000   0.00000   0.54381
  14        2PZ        -0.03601   0.00000   0.00000   0.27064
  15        3S          0.33299   0.00000   0.00000  -0.13690   0.39422
  16        3PX         0.00000   0.32357   0.00000   0.00000   0.00000
  17        3PY         0.00000   0.00000   0.32357   0.00000   0.00000
  18        3PZ         0.00324   0.00000   0.00000   0.11151  -0.02746
                          16        17        18
  16        3PX         0.19579
  17        3PY         0.00000   0.19579
  18        3PZ         0.00000   0.00000   0.05446
     Beta Density Matrix:
                           1         2         3         4         5
   1 1   O  1S          1.04389
   2        2S         -0.09874   0.27297
   3        2PX         0.00000   0.00000   0.16787
   4        2PY         0.00000   0.00000   0.00000   0.16787
   5        2PZ        -0.02297   0.03888   0.00000   0.00000   0.26795
   6        3S         -0.13639   0.29343   0.00000   0.00000   0.14586
   7        3PX         0.00000   0.00000   0.13102   0.00000   0.00000
   8        3PY         0.00000   0.00000   0.00000   0.13102   0.00000
   9        3PZ        -0.00990   0.02535   0.00000   0.00000   0.12550
  10 2   O  1S          0.00053   0.00065   0.00000   0.00000   0.02391
  11        2S          0.00065  -0.00834   0.00000   0.00000  -0.06598
  12        2PX         0.00000   0.00000   0.16787   0.00000   0.00000
  13        2PY         0.00000   0.00000   0.00000   0.16787   0.00000
  14        2PZ        -0.02391   0.06598   0.00000   0.00000  -0.22876
  15        3S          0.02637  -0.06080   0.00000   0.00000   0.01344
  16        3PX         0.00000   0.00000   0.13102   0.00000   0.00000
  17        3PY         0.00000   0.00000   0.00000   0.13102   0.00000
  18        3PZ         0.00171   0.00658   0.00000   0.00000  -0.11363
                           6         7         8         9        10
   6        3S          0.36014
   7        3PX         0.00000   0.10226
   8        3PY         0.00000   0.00000   0.10226
   9        3PZ         0.07298   0.00000   0.00000   0.06130
  10 2   O  1S          0.02637   0.00000   0.00000  -0.00171   1.04389
  11        2S         -0.06080   0.00000   0.00000  -0.00658  -0.09874
  12        2PX         0.00000   0.13102   0.00000   0.00000   0.00000
  13        2PY         0.00000   0.00000   0.13102   0.00000   0.00000
  14        2PZ        -0.01344   0.00000   0.00000  -0.11363   0.02297
  15        3S         -0.08733   0.00000   0.00000   0.03289  -0.13639
  16        3PX         0.00000   0.10226   0.00000   0.00000   0.00000
  17        3PY         0.00000   0.00000   0.10226   0.00000   0.00000
  18        3PZ        -0.03289   0.00000   0.00000  -0.05767   0.00990
                          11        12        13        14        15
  11        2S          0.27297
  12        2PX         0.00000   0.16787
  13        2PY         0.00000   0.00000   0.16787
  14        2PZ        -0.03888   0.00000   0.00000   0.26795
  15        3S          0.29343   0.00000   0.00000  -0.14586   0.36014
  16        3PX         0.00000   0.13102   0.00000   0.00000   0.00000
  17        3PY         0.00000   0.00000   0.13102   0.00000   0.00000
  18        3PZ        -0.02535   0.00000   0.00000   0.12550  -0.07298
                          16        17        18
  16        3PX         0.10226
  17        3PY         0.00000   0.10226
  18        3PZ         0.00000   0.00000   0.06130
    Full Mulliken population analysis:
                           1         2         3         4         5
   1 1   O  1S          2.09068
   2        2S         -0.04927   0.59997
   3        2PX         0.00000   0.00000   0.71168
   4        2PY         0.00000   0.00000   0.00000   0.71168
   5        2PZ         0.00000   0.00000   0.00000   0.00000   0.53859
   6        3S         -0.04739   0.47837   0.00000   0.00000   0.00000
   7        3PX         0.00000   0.00000   0.22798   0.00000   0.00000
   8        3PY         0.00000   0.00000   0.00000   0.22798   0.00000
   9        3PZ         0.00000   0.00000   0.00000   0.00000   0.11887
  10 2   O  1S          0.00000   0.00001   0.00000   0.00000  -0.00044
  11        2S          0.00001  -0.00125   0.00000   0.00000   0.01615
  12        2PX         0.00000   0.00000   0.00417   0.00000   0.00000
  13        2PY         0.00000   0.00000   0.00000   0.00417   0.00000
  14        2PZ        -0.00044   0.01615   0.00000   0.00000   0.09190
  15        3S          0.00294  -0.04025   0.00000   0.00000  -0.00612
  16        3PX         0.00000   0.00000   0.00788   0.00000   0.00000
  17        3PY         0.00000   0.00000   0.00000   0.00788   0.00000
  18        3PZ         0.00154  -0.00903   0.00000   0.00000   0.04803
                           6         7         8         9        10
   6        3S          0.75437
   7        3PX         0.00000   0.29805
   8        3PY         0.00000   0.00000   0.29805
   9        3PZ         0.00000   0.00000   0.00000   0.11577
  10 2   O  1S          0.00294   0.00000   0.00000   0.00154   2.09068
  11        2S         -0.04025   0.00000   0.00000  -0.00903  -0.04927
  12        2PX         0.00000   0.00788   0.00000   0.00000   0.00000
  13        2PY         0.00000   0.00000   0.00788   0.00000   0.00000
  14        2PZ        -0.00612   0.00000   0.00000   0.04803   0.00000
  15        3S         -0.12474   0.00000   0.00000  -0.05755  -0.04739
  16        3PX         0.00000   0.01438   0.00000   0.00000   0.00000
  17        3PY         0.00000   0.00000   0.01438   0.00000   0.00000
  18        3PZ        -0.05755   0.00000   0.00000   0.02298   0.00000
                          11        12        13        14        15
  11        2S          0.59997
  12        2PX         0.00000   0.71168
  13        2PY         0.00000   0.00000   0.71168
  14        2PZ         0.00000   0.00000   0.00000   0.53859
  15        3S          0.47837   0.00000   0.00000   0.00000   0.75437
  16        3PX         0.00000   0.22798   0.00000   0.00000   0.00000
  17        3PY         0.00000   0.00000   0.22798   0.00000   0.00000
  18        3PZ         0.00000   0.00000   0.00000   0.11887   0.00000
                          16        17        18
  16        3PX         0.29805
  17        3PY         0.00000   0.29805
  18        3PZ         0.00000   0.00000   0.11577
     Gross orbital populations:
                         Total     Alpha     Beta      Spin
   1 1   O  1S          1.99808   0.99905   0.99903   0.00002
   2        2S          0.99471   0.52481   0.46990   0.05492
   3        2PX         0.95171   0.69049   0.26122   0.42928
   4        2PY         0.95171   0.69049   0.26122   0.42928
   5        2PZ         0.80699   0.40235   0.40463  -0.00228
   6        3S          0.95962   0.47694   0.48268  -0.00574
   7        3PX         0.54829   0.30951   0.23878   0.07072
   8        3PY         0.54829   0.30951   0.23878   0.07072
   9        3PZ         0.24060   0.09685   0.14376  -0.04691
  10 2   O  1S          1.99808   0.99905   0.99903   0.00002
  11        2S          0.99471   0.52481   0.46990   0.05492
  12        2PX         0.95171   0.69049   0.26122   0.42928
  13        2PY         0.95171   0.69049   0.26122   0.42928
  14        2PZ         0.80699   0.40235   0.40463  -0.00228
  15        3S          0.95962   0.47694   0.48268  -0.00574
  16        3PX         0.54829   0.30951   0.23878   0.07072
  17        3PY         0.54829   0.30951   0.23878   0.07072
  18        3PZ         0.24060   0.09685   0.14376  -0.04691
          Condensed to atoms (all electrons):
               1          2
     1  O    8.031922  -0.031922
     2  O   -0.031922   8.031922
          Atomic-Atomic Spin Densities.
               1          2
     1  O    1.448748  -0.448748
     2  O   -0.448748   1.448748
 Mulliken charges and spin densities:
               1          2
     1  O    0.000000   1.000000
     2  O    0.000000   1.000000
 Sum of Mulliken charges =   0.00000   2.00000
 Mulliken charges and spin densities with hydrogens summed into heavy atoms:
               1          2
     1  O    0.000000   1.000000
     2  O    0.000000   1.000000
 Electronic spatial extent (au):  <R**2>=             44.3475
 Charge=              0.0000 electrons
 Dipole moment (field-independent basis, Debye):
    X=              0.0000    Y=              0.0000    Z=              0.0000  Tot=              0.0000
 Quadrupole moment (field-independent basis, Debye-Ang):
   XX=             -9.9975   YY=             -9.9975   ZZ=            -11.1900
   XY=              0.0000   XZ=              0.0000   YZ=              0.0000
 Traceless Quadrupole moment (field-independent basis, Debye-Ang):
   XX=              0.3975   YY=              0.3975   ZZ=             -0.7950
   XY=              0.0000   XZ=              0.0000   YZ=              0.0000
 Octapole moment (field-independent basis, Debye-Ang**2):
  XXX=              0.0000  YYY=              0.0000  ZZZ=              0.0000  XYY=              0.0000
  XXY=              0.0000  XXZ=              0.0000  XZZ=              0.0000  YZZ=              0.0000
  YYZ=              0.0000  XYZ=              0.0000
 Hexadecapole moment (field-independent basis, Debye-Ang**3):
 XXXX=             -6.6859 YYYY=             -6.6859 ZZZZ=            -29.0840 XXXY=              0.0000
 XXXZ=              0.0000 YYYX=              0.0000 YYYZ=              0.0000 ZZZX=              0.0000
 ZZZY=              0.0000 XXYY=             -2.2286 XXZZ=             -6.1243 YYZZ=             -6.1243
 XXYZ=              0.0000 YYXZ=              0.0000 ZZXY=              0.0000
 N-N= 2.782461435104D+01 E-N=-4.102464041585D+02  KE= 1.495118985784D+02
 Orbital energies and kinetic energies (alpha):
                                 1                 2
   1         O               -20.774101         29.178439
   2         O               -20.773626         29.170595
   3         O                -1.752149          2.985047
   4         O                -1.209013          3.460673
   5         O                -0.852661          2.443106
   6         O                -0.852661          2.443106
   7         O                -0.750764          2.717326
   8         O                -0.575281          3.092032
   9         O                -0.575281          3.092032
  10         V                 0.382332          3.438913
  11         V                 1.014781          3.302983
  12         V                 1.014781          3.302983
  13         V                 1.076786          3.948410
  14         V                 1.111979          3.354030
  15         V                 1.127821          3.066103
  16         V                 1.127821          3.066103
  17         V                 1.239595          3.217916
  18         V                 1.666499          3.491861
 Orbital energies and kinetic energies (beta):
                                 1                 2
   1         O               -20.718745         29.231908
   2         O               -20.717660         29.230909
   3         O                -1.607616          2.801324
   4         O                -1.000420          3.163839
   5         O                -0.688653          2.616467
   6         O                -0.578083          1.942547
   7         O                -0.578083          1.942547
   8         V                 0.088361          2.425980
   9         V                 0.088361          2.425980
  10         V                 0.462936          3.398306
  11         V                 1.109484          4.116929
  12         V                 1.140633          3.803542
  13         V                 1.140633          3.803542
  14         V                 1.150181          3.402937
  15         V                 1.250382          3.732155
  16         V                 1.250382          3.732155
  17         V                 1.256858          3.400122
  18         V                 1.714089          3.600468
 Total kinetic energy from orbitals= 1.495118985784D+02
                          Isotropic Fermi Contact Couplings
        Atom                 a.u.       MegaHertz       Gauss      10(-4) cm-1
     1  O(17)              0.43671    -132.36570     -47.23137     -44.15245
     2  O(17)              0.43671    -132.36570     -47.23137     -44.15245
 --------------------------------------------------------
       Center         ----  Spin Dipole Couplings  ----
                      3XX-RR        3YY-RR        3ZZ-RR
 --------------------------------------------------------
     1   Atom        1.297050      1.297050     -2.594100
     2   Atom        1.297050      1.297050     -2.594100
 --------------------------------------------------------
                        XY            XZ            YZ
 --------------------------------------------------------
     1   Atom        0.000000      0.000000      0.000000
     2   Atom        0.000000      0.000000      0.000000
 --------------------------------------------------------


 ---------------------------------------------------------------------------------
              Anisotropic Spin Dipole Couplings in Principal Axis System
 ---------------------------------------------------------------------------------

       Atom             a.u.   MegaHertz   Gauss  10(-4) cm-1        Axes

              Baa    -2.5941   187.707    66.979    62.612  0.0000  0.0000  1.0000
     1 O(17)  Bbb     1.2971   -93.854   -33.489   -31.306  0.3558  0.9346  0.0000
              Bcc     1.2971   -93.854   -33.489   -31.306  0.9346 -0.3558  0.0000
 
              Baa    -2.5941   187.707    66.979    62.612  0.0000  0.0000  1.0000
     2 O(17)  Bbb     1.2971   -93.854   -33.489   -31.306 -0.6793  0.7338  0.0000
              Bcc     1.2971   -93.854   -33.489   -31.306  0.7338  0.6793  0.0000
 

 ---------------------------------------------------------------------------------

 No NMR shielding tensors so no spin-rotation constants.
 Leave Link  601 at Tue Sep 22 13:39:41 2015, MaxMem=    33554432 cpu:               0.2 elap:               0.2
 (Enter /home/gauss/gdvi01p/gdv/l9999.exe)
 Unable to Open any file for archive entry.
 1\1\GINC-MEDUSA\SP\UHF\6-31G\O2(3)\DBWY\22-Sep-2015\0\\#p uhf/6-31G gf
 input pop=full nosymm\\O2 6-31G\\0,3\O,0,0.,0.,0.608586\O,0,0.,0.,-0.6
 08586\\Version=ES64L-GDVRevI.01+\HF=-149.5450375\S2=2.033912\S2-1=0.\S
 2A=2.000578\RMSD=2.351e-09\Dipole=0.,0.,0.\Quadrupole=0.2955484,0.2955
 484,-0.5910968,0.,0.,0.\PG=D*H [C*(O1.O1)]\\@
 The archive entry for this job was punched.


 THE ONLY TROUBLE WITH A SURE THING IS THE UNCERTAINTY.
     -- FROM A TEABAG (BELONGING TO W.H.?)
 Job cpu time:       0 days  0 hours  0 minutes  0.8 seconds.
 Elapsed time:       0 days  0 hours  0 minutes  0.6 seconds.
 File lengths (MBytes):  RWF=      5 Int=      0 D2E=      0 Chk=      1 Scr=      1
 Normal termination of Gaussian DV at Tue Sep 22 13:39:41 2015.
