 Entering Gaussian System, Link 0=gdv
 Input=O2_6-31G_field.com
 Output=O2_6-31G_field.log
 Initial command:
 /home/gauss/gdvi01p/gdv/l1.exe "/home/GauScr/Gau-32767.inp" -scrdir="/home/GauScr/"
 Entering Link 1 = /home/gauss/gdvi01p/gdv/l1.exe PID=       303.
  
 Copyright (c) 1988,1990,1992,1993,1995,1998,2003,2009,2014,
            Gaussian, Inc.  All Rights Reserved.
  
 This is the private, development version of
 the Gaussian(R) DV system of programs. It is based on
 the Gaussian(R) 09 system (copyright 2009, Gaussian, Inc.),
 the Gaussian(R) 03 system (copyright 2003, Gaussian, Inc.),
 the Gaussian(R) 98 system (copyright 1998, Gaussian, Inc.),
 the Gaussian(R) 94 system (copyright 1995, Gaussian, Inc.),
 the Gaussian 92(TM) system (copyright 1992, Gaussian, Inc.),
 the Gaussian 90(TM) system (copyright 1990, Gaussian, Inc.),
 the Gaussian 88(TM) system (copyright 1988, Gaussian, Inc.),
 the Gaussian 86(TM) system (copyright 1986, Carnegie Mellon
 University), and the Gaussian 82(TM) system (copyright 1983,
 Carnegie Mellon University). Gaussian is a federally registered
 trademark of Gaussian, Inc.
  
 This software contains proprietary and confidential information,
 including trade secrets, belonging to Gaussian, Inc.
  
 This software is provided under written license and may be
 used, copied, transmitted, or stored only in accord with that
 written license.
  
 The following legend is applicable only to US Government
 contracts under FAR:
  
                    RESTRICTED RIGHTS LEGEND
  
 Use, reproduction and disclosure by the US Government is
 subject to restrictions as set forth in subparagraphs (a)
 and (c) of the Commercial Computer Software - Restricted
 Rights clause in FAR 52.227-19.
  
 Gaussian, Inc.
 340 Quinnipiac St., Bldg. 40, Wallingford CT 06492
  
  
 ---------------------------------------------------------------
 Warning -- This program may not be used in any manner that
 competes with the business of Gaussian, Inc. or will provide
 assistance to any competitor of Gaussian, Inc.  The licensee
 of this program is prohibited from giving any competitor of
 Gaussian, Inc. access to this program.  By using this program,
 the user acknowledges that Gaussian, Inc. is engaged in the
 business of creating and licensing software in the field of
 computational chemistry and represents and warrants to the
 licensee that it is not a competitor of Gaussian, Inc. and that
 it will not use this program in any manner prohibited above.
 ---------------------------------------------------------------
  

 Cite this work as:
 Gaussian Development Version, Revision I.01+,
 M. J. Frisch, G. W. Trucks, H. B. Schlegel, G. E. Scuseria, 
 M. A. Robb, J. R. Cheeseman, G. Scalmani, V. Barone, B. Mennucci, 
 G. A. Petersson, H. Nakatsuji, M. Caricato, X. Li, H. P. Hratchian, 
 A. F. Izmaylov, J. Bloino, B. G. Janesko, F. Lipparini, G. Zheng, 
 J. L. Sonnenberg, W. Liang, M. Hada, M. Ehara, K. Toyota, R. Fukuda, 
 J. Hasegawa, M. Ishida, T. Nakajima, Y. Honda, O. Kitao, H. Nakai, 
 T. Vreven, J. A. Montgomery, Jr., J. E. Peralta, F. Ogliaro, 
 M. Bearpark, J. J. Heyd, E. Brothers, K. N. Kudin, V. N. Staroverov, 
 T. Keith, R. Kobayashi, J. Normand, K. Raghavachari, A. Rendell, 
 J. C. Burant, S. S. Iyengar, J. Tomasi, M. Cossi, N. Rega, 
 J. M. Millam, M. Klene, J. E. Knox, J. B. Cross, V. Bakken, 
 C. Adamo, J. Jaramillo, R. Gomperts, R. E. Stratmann, O. Yazyev, 
 A. J. Austin, R. Cammi, C. Pomelli, J. W. Ochterski, R. L. Martin, 
 K. Morokuma, V. G. Zakrzewski, G. A. Voth, P. Salvador, 
 J. J. Dannenberg, S. Dapprich, P. V. Parandekar, N. J. Mayhall, 
 A. D. Daniels, O. Farkas, J. B. Foresman, J. V. Ortiz, 
 J. Cioslowski, and D. J. Fox, Gaussian, Inc., Wallingford CT, 2010.
 
 *******************************************
 Gaussian DV:  ES64L-GDVRevI.01+ 11-Sep-2014
                 29-Sep-2015 
 *******************************************
 ------------------------------------------------
 #p uhf/6-31G gfinput pop=full nosymm Field=X-100
 ------------------------------------------------
 1/38=1,172=1/1;
 2/12=2,15=1,17=6,18=5,40=1/2;
 3/5=1,6=6,11=2,14=1,15=-100,24=10,25=1,30=1,116=2/1,2,3;
 4//1;
 5/5=2,38=5/2;
 6/7=3,28=1/1;
 99/5=1,9=1/99;
 Leave Link    1 at Tue Sep 29 11:37:11 2015, MaxMem=           0 cpu:               0.0 elap:               0.0
 (Enter /home/gauss/gdvi01p/gdv/l101.exe)
 --------
 O2 6-31G
 --------
 Symbolic Z-matrix:
 Charge =  0 Multiplicity = 3
 O                     0.        0.        0.60859 
 O                     0.        0.       -0.60859 
 
 ITRead=  0  0
 MicOpt= -1 -1
 NAtoms=      2 NQM=        2 NQMF=       0 NMMI=      0 NMMIF=      0
                NMic=       0 NMicF=      0.
                    Isotopes and Nuclear Properties:
 (Nuclear quadrupole moments (NQMom) in fm**2, nuclear magnetic moments (NMagM)
  in nuclear magnetons)

  Atom         1           2
 IAtWgt=          16          16
 AtmWgt=  15.9949146  15.9949146
 NucSpn=           0           0
 AtZEff=   0.0000000   0.0000000
 NQMom=    0.0000000   0.0000000
 NMagM=    0.0000000   0.0000000
 AtZNuc=   8.0000000   8.0000000
 Leave Link  101 at Tue Sep 29 11:37:11 2015, MaxMem=    33554432 cpu:               0.1 elap:               0.1
 (Enter /home/gauss/gdvi01p/gdv/l202.exe)
                          Input orientation:                          
 ---------------------------------------------------------------------
 Center     Atomic      Atomic             Coordinates (Angstroms)
 Number     Number       Type             X           Y           Z
 ---------------------------------------------------------------------
      1          8           0        0.000000    0.000000    0.608586
      2          8           0        0.000000    0.000000   -0.608586
 ---------------------------------------------------------------------
 Symmetry turned off by external request.
 Stoichiometry    O2(3)
 Framework group  D*H[C*(O.O)]
 Deg. of freedom     1
 Full point group                 D*H     NOp   8
 Rotational constants (GHZ):      0.0000000     42.6541569     42.6541569
 Leave Link  202 at Tue Sep 29 11:37:11 2015, MaxMem=    33554432 cpu:               0.0 elap:               0.0
 (Enter /home/gauss/gdvi01p/gdv/l301.exe)
 Standard basis: 6-31G (6D, 7F)
 Ernie: Thresh=  0.10000D-02 Tol=  0.10000D-05 Strict=F.
 The following finite field(s) will be applied:
 An electric field of             -0.0100  0.0000  0.0000
 AO basis set in the form of general basis input (Overlap normalization):
      1 0
 S   6 1.00       0.000000000000
      0.5484671660D+04  0.1831074430D-02
      0.8252349460D+03  0.1395017220D-01
      0.1880469580D+03  0.6844507810D-01
      0.5296450000D+02  0.2327143360D+00
      0.1689757040D+02  0.4701928980D+00
      0.5799635340D+01  0.3585208530D+00
 SP   3 1.00       0.000000000000
      0.1553961625D+02 -0.1107775495D+00  0.7087426823D-01
      0.3599933586D+01 -0.1480262627D+00  0.3397528391D+00
      0.1013761750D+01  0.1130767015D+01  0.7271585773D+00
 SP   1 1.00       0.000000000000
      0.2700058226D+00  0.1000000000D+01  0.1000000000D+01
 ****
      2 0
 S   6 1.00       0.000000000000
      0.5484671660D+04  0.1831074430D-02
      0.8252349460D+03  0.1395017220D-01
      0.1880469580D+03  0.6844507810D-01
      0.5296450000D+02  0.2327143360D+00
      0.1689757040D+02  0.4701928980D+00
      0.5799635340D+01  0.3585208530D+00
 SP   3 1.00       0.000000000000
      0.1553961625D+02 -0.1107775495D+00  0.7087426823D-01
      0.3599933586D+01 -0.1480262627D+00  0.3397528391D+00
      0.1013761750D+01  0.1130767015D+01  0.7271585773D+00
 SP   1 1.00       0.000000000000
      0.2700058226D+00  0.1000000000D+01  0.1000000000D+01
 ****

    18 basis functions,    44 primitive gaussians,    18 cartesian basis functions
     9 alpha electrons        7 beta electrons
       nuclear repulsion energy        27.8246143510 Hartrees.
 IExCor=    0 DFT=F Ex=HF Corr=None ExCW=0 ScaHFX=  1.000000
 ScaDFX=  1.000000  1.000000  1.000000  1.000000 ScalE2=  1.000000  1.000000
 IRadAn=      0 IRanWt=     -1 IRanGd=            0 ICorTp=0 IEmpDi=  4
 NAtoms=    2 NActive=    2 NUniq=    2 SFac= 1.00D+00 NAtFMM=   60 NAOKFM=F Big=F
 Integral buffers will be    131072 words long.
 Raffenetti 2 integral format.
 Two-electron integral symmetry is turned off.
 Leave Link  301 at Tue Sep 29 11:37:11 2015, MaxMem=    33554432 cpu:               0.0 elap:               0.0
 (Enter /home/gauss/gdvi01p/gdv/l302.exe)
 NPDir=0 NMtPBC=     1 NCelOv=     1 NCel=       1 NClECP=     1 NCelD=      1
         NCelK=      1 NCelE2=     1 NClLst=     1 CellRange=     0.0.
 One-electron integrals computed using PRISM.
 One-electron integral symmetry used in STVInt
 NBasis=    18 RedAO= T EigKep=  2.35D-02  NBF=    18
 NBsUse=    18 1.00D-06 EigRej= -1.00D+00 NBFU=    18
 Leave Link  302 at Tue Sep 29 11:37:11 2015, MaxMem=    33554432 cpu:               0.1 elap:               0.1
 (Enter /home/gauss/gdvi01p/gdv/l303.exe)
 DipDrv:  MaxL=1.
 The nuclear repulsion energy is now        27.8246143510 hartrees.
 Leave Link  303 at Tue Sep 29 11:37:11 2015, MaxMem=    33554432 cpu:               0.0 elap:               0.0
 (Enter /home/gauss/gdvi01p/gdv/l401.exe)
 ExpMin= 2.70D-01 ExpMax= 5.48D+03 ExpMxC= 8.25D+02 IAcc=1 IRadAn=         1 AccDes= 0.00D+00
 Harris functional with IExCor=  205 and IRadAn=       1 diagonalized for initial guess.
 HarFok:  IExCor=  205 AccDes= 0.00D+00 IRadAn=         1 IDoV= 1 UseB2=F ITyADJ=14
 ICtDFT=  3500011 ScaDFX=  1.000000  1.000000  1.000000  1.000000
 FoFCou: FMM=F IPFlag=           0 FMFlag=      100000 FMFlg1=           0
         NFxFlg=           0 DoJE=T BraDBF=F KetDBF=T FulRan=T
         wScrn=  0.000000 ICntrl=       500 IOpCl=  0 I1Cent=   200000004 NGrid=           0
         NMat0=    1 NMatS0=      1 NMatT0=    0 NMatD0=    1 NMtDS0=    0 NMtDT0=    0
 Symmetry not used in FoFCou.
 Harris En= -149.508370647856    
 JPrj=0 DoOrth=F DoCkMO=F.
 Initial guess <Sx>= 0.0000 <Sy>= 0.0000 <Sz>= 1.0000 <S**2>= 2.0000 S= 1.0000
 Leave Link  401 at Tue Sep 29 11:37:11 2015, MaxMem=    33554432 cpu:               0.1 elap:               0.1
 (Enter /home/gauss/gdvi01p/gdv/l502.exe)
 Keep R1 and R2 ints in memory in canonical form, NReq=834600.
 FoFCou: FMM=F IPFlag=           0 FMFlag=           0 FMFlg1=           0
         NFxFlg=           0 DoJE=F BraDBF=F KetDBF=F FulRan=T
         wScrn=  0.000000 ICntrl=       600 IOpCl=  0 I1Cent=           0 NGrid=           0
         NMat0=    1 NMatS0=    171 NMatT0=    0 NMatD0=    1 NMtDS0=    0 NMtDT0=    0
 Symmetry not used in FoFCou.
 Two-electron integral symmetry not used.
 UHF open shell SCF:
 Using DIIS extrapolation, IDIIS=  1040.
 NGot=    33554432 LenX=    33523688 LenY=    33522806
 Requested convergence on RMS density matrix=1.00D-08 within 128 cycles.
 Requested convergence on MAX density matrix=1.00D-06.
 Requested convergence on             energy=1.00D-06.
 No special actions if energy rises.

 Cycle   1  Pass 1  IDiag  1:
 E= -149.517996493990    
 DIIS: error= 6.06D-02 at cycle   1 NSaved=   1.
 NSaved= 1 IEnMin= 1 EnMin= -149.517996493990     IErMin= 1 ErrMin= 6.06D-02
 ErrMax= 6.06D-02  0.00D+00 EMaxC= 1.00D-01 BMatC= 1.74D-01 BMatP= 1.74D-01
 IDIUse=3 WtCom= 3.94D-01 WtEn= 6.06D-01
 Coeff-Com:  0.100D+01
 Coeff-En:   0.100D+01
 Coeff:      0.100D+01
 Gap=     0.946 Goal=   None    Shift=    0.000
 Gap=     0.676 Goal=   None    Shift=    0.000
 GapD=    0.676 DampG=2.000 DampE=0.500 DampFc=1.0000 IDamp=-1.
 RMSDP=7.82D-03 MaxDP=5.15D-02              OVMax= 7.29D-03

 Cycle   2  Pass 1  IDiag  1:
 E= -149.541046524678     Delta-E=       -0.023050030688 Rises=F Damp=F
 DIIS: error= 1.39D-02 at cycle   2 NSaved=   2.
 NSaved= 2 IEnMin= 2 EnMin= -149.541046524678     IErMin= 2 ErrMin= 1.39D-02
 ErrMax= 1.39D-02  0.00D+00 EMaxC= 1.00D-01 BMatC= 8.55D-03 BMatP= 1.74D-01
 IDIUse=3 WtCom= 8.61D-01 WtEn= 1.39D-01
 Coeff-Com: -0.119D+00 0.112D+01
 Coeff-En:   0.000D+00 0.100D+01
 Coeff:     -0.102D+00 0.110D+01
 Gap=     0.952 Goal=   None    Shift=    0.000
 Gap=     0.666 Goal=   None    Shift=    0.000
 RMSDP=2.78D-03 MaxDP=1.35D-02 DE=-2.31D-02 OVMax= 3.85D-03

 Cycle   3  Pass 1  IDiag  1:
 E= -149.544529709626     Delta-E=       -0.003483184948 Rises=F Damp=F
 DIIS: error= 4.70D-03 at cycle   3 NSaved=   3.
 NSaved= 3 IEnMin= 3 EnMin= -149.544529709626     IErMin= 3 ErrMin= 4.70D-03
 ErrMax= 4.70D-03  0.00D+00 EMaxC= 1.00D-01 BMatC= 1.27D-03 BMatP= 8.55D-03
 IDIUse=3 WtCom= 9.53D-01 WtEn= 4.70D-02
 Coeff-Com:  0.330D-01-0.688D+00 0.165D+01
 Coeff-En:   0.000D+00 0.000D+00 0.100D+01
 Coeff:      0.314D-01-0.656D+00 0.162D+01
 Gap=     0.957 Goal=   None    Shift=    0.000
 Gap=     0.666 Goal=   None    Shift=    0.000
 RMSDP=1.64D-03 MaxDP=9.19D-03 DE=-3.48D-03 OVMax= 5.12D-03

 Cycle   4  Pass 1  IDiag  1:
 E= -149.545156782538     Delta-E=       -0.000627072912 Rises=F Damp=F
 DIIS: error= 7.25D-04 at cycle   4 NSaved=   4.
 NSaved= 4 IEnMin= 4 EnMin= -149.545156782538     IErMin= 4 ErrMin= 7.25D-04
 ErrMax= 7.25D-04  0.00D+00 EMaxC= 1.00D-01 BMatC= 1.96D-05 BMatP= 1.27D-03
 IDIUse=3 WtCom= 9.93D-01 WtEn= 7.25D-03
 Coeff-Com: -0.757D-02 0.216D+00-0.610D+00 0.140D+01
 Coeff-En:   0.000D+00 0.000D+00 0.000D+00 0.100D+01
 Coeff:     -0.751D-02 0.215D+00-0.606D+00 0.140D+01
 Gap=     0.957 Goal=   None    Shift=    0.000
 Gap=     0.666 Goal=   None    Shift=    0.000
 RMSDP=2.15D-04 MaxDP=1.68D-03 DE=-6.27D-04 OVMax= 1.62D-03

 Cycle   5  Pass 1  IDiag  1:
 E= -149.545165179899     Delta-E=       -0.000008397361 Rises=F Damp=F
 DIIS: error= 8.34D-05 at cycle   5 NSaved=   5.
 NSaved= 5 IEnMin= 5 EnMin= -149.545165179899     IErMin= 5 ErrMin= 8.34D-05
 ErrMax= 8.34D-05  0.00D+00 EMaxC= 1.00D-01 BMatC= 3.28D-07 BMatP= 1.96D-05
 IDIUse=1 WtCom= 1.00D+00 WtEn= 0.00D+00
 Coeff-Com: -0.216D-02 0.491D-01-0.131D+00 0.212D+00 0.873D+00
 Coeff:     -0.216D-02 0.491D-01-0.131D+00 0.212D+00 0.873D+00
 Gap=     0.958 Goal=   None    Shift=    0.000
 Gap=     0.666 Goal=   None    Shift=    0.000
 RMSDP=1.93D-05 MaxDP=1.01D-04 DE=-8.40D-06 OVMax= 8.64D-05

 Cycle   6  Pass 1  IDiag  1:
 E= -149.545165269331     Delta-E=       -0.000000089432 Rises=F Damp=F
 DIIS: error= 1.64D-05 at cycle   6 NSaved=   6.
 NSaved= 6 IEnMin= 6 EnMin= -149.545165269331     IErMin= 6 ErrMin= 1.64D-05
 ErrMax= 1.64D-05  0.00D+00 EMaxC= 1.00D-01 BMatC= 1.30D-08 BMatP= 3.28D-07
 IDIUse=1 WtCom= 1.00D+00 WtEn= 0.00D+00
 Coeff-Com:  0.864D-03-0.208D-01 0.566D-01-0.108D+00-0.237D+00 0.131D+01
 Coeff:      0.864D-03-0.208D-01 0.566D-01-0.108D+00-0.237D+00 0.131D+01
 Gap=     0.958 Goal=   None    Shift=    0.000
 Gap=     0.666 Goal=   None    Shift=    0.000
 RMSDP=6.90D-06 MaxDP=4.05D-05 DE=-8.94D-08 OVMax= 2.47D-05

 Cycle   7  Pass 1  IDiag  1:
 E= -149.545165274769     Delta-E=       -0.000000005438 Rises=F Damp=F
 DIIS: error= 4.80D-06 at cycle   7 NSaved=   7.
 NSaved= 7 IEnMin= 7 EnMin= -149.545165274769     IErMin= 7 ErrMin= 4.80D-06
 ErrMax= 4.80D-06  0.00D+00 EMaxC= 1.00D-01 BMatC= 5.86D-10 BMatP= 1.30D-08
 IDIUse=1 WtCom= 1.00D+00 WtEn= 0.00D+00
 Coeff-Com: -0.416D-03 0.102D-01-0.277D-01 0.544D-01 0.100D+00-0.688D+00
 Coeff-Com:  0.155D+01
 Coeff:     -0.416D-03 0.102D-01-0.277D-01 0.544D-01 0.100D+00-0.688D+00
 Coeff:      0.155D+01
 Gap=     0.958 Goal=   None    Shift=    0.000
 Gap=     0.666 Goal=   None    Shift=    0.000
 RMSDP=1.76D-06 MaxDP=9.09D-06 DE=-5.44D-09 OVMax= 7.70D-06

 Cycle   8  Pass 1  IDiag  1:
 E= -149.545165275180     Delta-E=       -0.000000000411 Rises=F Damp=F
 DIIS: error= 1.76D-06 at cycle   8 NSaved=   8.
 NSaved= 8 IEnMin= 8 EnMin= -149.545165275180     IErMin= 8 ErrMin= 1.76D-06
 ErrMax= 1.76D-06  0.00D+00 EMaxC= 1.00D-01 BMatC= 4.60D-11 BMatP= 5.86D-10
 IDIUse=1 WtCom= 1.00D+00 WtEn= 0.00D+00
 Coeff-Com:  0.205D-03-0.507D-02 0.138D-01-0.278D-01-0.447D-01 0.337D+00
 Coeff-Com: -0.958D+00 0.169D+01
 Coeff:      0.205D-03-0.507D-02 0.138D-01-0.278D-01-0.447D-01 0.337D+00
 Coeff:     -0.958D+00 0.169D+01
 Gap=     0.958 Goal=   None    Shift=    0.000
 Gap=     0.666 Goal=   None    Shift=    0.000
 RMSDP=6.90D-07 MaxDP=3.33D-06 DE=-4.11D-10 OVMax= 2.02D-06

 Cycle   9  Pass 1  IDiag  1:
 E= -149.545165275225     Delta-E=       -0.000000000045 Rises=F Damp=F
 DIIS: error= 4.08D-07 at cycle   9 NSaved=   9.
 NSaved= 9 IEnMin= 9 EnMin= -149.545165275225     IErMin= 9 ErrMin= 4.08D-07
 ErrMax= 4.08D-07  0.00D+00 EMaxC= 1.00D-01 BMatC= 3.64D-12 BMatP= 4.60D-11
 IDIUse=1 WtCom= 1.00D+00 WtEn= 0.00D+00
 Coeff-Com: -0.600D-04 0.153D-02-0.419D-02 0.862D-02 0.110D-01-0.956D-01
 Coeff-Com:  0.330D+00-0.811D+00 0.156D+01
 Coeff:     -0.600D-04 0.153D-02-0.419D-02 0.862D-02 0.110D-01-0.956D-01
 Coeff:      0.330D+00-0.811D+00 0.156D+01
 Gap=     0.958 Goal=   None    Shift=    0.000
 Gap=     0.666 Goal=   None    Shift=    0.000
 RMSDP=1.75D-07 MaxDP=7.83D-07 DE=-4.48D-11 OVMax= 6.36D-07

 Cycle  10  Pass 1  IDiag  1:
 E= -149.545165275228     Delta-E=       -0.000000000003 Rises=F Damp=F
 DIIS: error= 8.31D-08 at cycle  10 NSaved=  10.
 NSaved=10 IEnMin=10 EnMin= -149.545165275228     IErMin=10 ErrMin= 8.31D-08
 ErrMax= 8.31D-08  0.00D+00 EMaxC= 1.00D-01 BMatC= 2.18D-13 BMatP= 3.64D-12
 IDIUse=1 WtCom= 1.00D+00 WtEn= 0.00D+00
 Coeff-Com:  0.735D-05-0.203D-03 0.560D-03-0.124D-02-0.640D-03 0.103D-01
 Coeff-Com: -0.503D-01 0.156D+00-0.544D+00 0.143D+01
 Coeff:      0.735D-05-0.203D-03 0.560D-03-0.124D-02-0.640D-03 0.103D-01
 Coeff:     -0.503D-01 0.156D+00-0.544D+00 0.143D+01
 Gap=     0.958 Goal=   None    Shift=    0.000
 Gap=     0.666 Goal=   None    Shift=    0.000
 RMSDP=4.63D-08 MaxDP=1.96D-07 DE=-2.96D-12 OVMax= 2.39D-07

 Cycle  11  Pass 1  IDiag  1:
 E= -149.545165275228     Delta-E=        0.000000000000 Rises=F Damp=F
 DIIS: error= 7.86D-09 at cycle  11 NSaved=  11.
 NSaved=11 IEnMin=11 EnMin= -149.545165275228     IErMin=11 ErrMin= 7.86D-09
 ErrMax= 7.86D-09  0.00D+00 EMaxC= 1.00D-01 BMatC= 3.45D-15 BMatP= 2.18D-13
 IDIUse=1 WtCom= 1.00D+00 WtEn= 0.00D+00
 Coeff-Com: -0.642D-06 0.210D-04-0.585D-04 0.145D-03-0.912D-04-0.556D-03
 Coeff-Com:  0.584D-02-0.206D-01 0.978D-01-0.375D+00 0.129D+01
 Coeff:     -0.642D-06 0.210D-04-0.585D-04 0.145D-03-0.912D-04-0.556D-03
 Coeff:      0.584D-02-0.206D-01 0.978D-01-0.375D+00 0.129D+01
 Gap=     0.958 Goal=   None    Shift=    0.000
 Gap=     0.666 Goal=   None    Shift=    0.000
 RMSDP=3.56D-09 MaxDP=1.75D-08 DE=-1.71D-13 OVMax= 2.49D-08

 SCF Done:  E(UHF) =  -149.545165275     A.U. after   11 cycles
            NFock= 11  Conv=0.36D-08     -V/T= 2.0002
 <Sx>= 0.0000 <Sy>= 0.0000 <Sz>= 1.0000 <S**2>= 2.0339 S= 1.0113
 <L.S>= 0.000000000000E+00
 KE= 1.495116797344D+02 PE=-4.102460999042D+02 EE= 8.336464054355D+01
 Annihilation of the first spin contaminant:
 S**2 before annihilation     2.0339,   after     2.0006
 Leave Link  502 at Tue Sep 29 11:37:11 2015, MaxMem=    33554432 cpu:               0.1 elap:               0.1
 (Enter /home/gauss/gdvi01p/gdv/l601.exe)
 Copying SCF densities to generalized density rwf, IOpCl= 1 IROHF=0.

 **********************************************************************

            Population analysis using the SCF density.

 **********************************************************************

 Alpha  occ. eigenvalues --  -20.77413 -20.77365  -1.75218  -1.20906  -0.85267
 Alpha  occ. eigenvalues --   -0.85267  -0.75078  -0.57530  -0.57528
 Alpha virt. eigenvalues --    0.38231   1.01432   1.01477   1.07643   1.11224
 Alpha virt. eigenvalues --    1.12781   1.12808   1.23980   1.66660
  Beta  occ. eigenvalues --  -20.71877 -20.71768  -1.60766  -1.00049  -0.68879
  Beta  occ. eigenvalues --   -0.57809  -0.57793
  Beta virt. eigenvalues --    0.08835   0.08840   0.46292   1.10934   1.13825
  Beta virt. eigenvalues --    1.14062   1.15208   1.25037   1.25040   1.25735
  Beta virt. eigenvalues --    1.71421
     Alpha Molecular Orbital Coefficients:
                           1         2         3         4         5
                           O         O         O         O         O
     Eigenvalues --   -20.77413 -20.77365  -1.75218  -1.20906  -0.85267
   1 1   O  1S          0.70395   0.70391  -0.15699  -0.16853   0.00000
   2        2S          0.01572   0.01665   0.38429   0.40811   0.00000
   3        2PX        -0.00002  -0.00002  -0.00143  -0.00210   0.00000
   4        2PY         0.00000   0.00000   0.00000   0.00000   0.48866
   5        2PZ        -0.00131  -0.00174  -0.16285   0.11132   0.00000
   6        3S         -0.00301  -0.00858   0.23486   0.52990   0.00000
   7        3PX         0.00001   0.00001  -0.00187  -0.00420   0.00000
   8        3PY         0.00000   0.00000   0.00000   0.00000   0.24790
   9        3PZ         0.00082   0.00361  -0.03609  -0.03581   0.00000
  10 2   O  1S          0.70395  -0.70391  -0.15699   0.16853   0.00000
  11        2S          0.01572  -0.01665   0.38429  -0.40811   0.00000
  12        2PX        -0.00002   0.00002  -0.00143   0.00210   0.00000
  13        2PY         0.00000   0.00000   0.00000   0.00000   0.48866
  14        2PZ         0.00131  -0.00174   0.16285   0.11132   0.00000
  15        3S         -0.00301   0.00858   0.23486  -0.52990   0.00000
  16        3PX         0.00001  -0.00001  -0.00187   0.00420   0.00000
  17        3PY         0.00000   0.00000   0.00000   0.00000   0.24790
  18        3PZ        -0.00082   0.00361   0.03609  -0.03581   0.00000
                           6         7         8         9        10
                           O         O         O         O         V
     Eigenvalues --    -0.85267  -0.75078  -0.57530  -0.57528   0.38231
   1 1   O  1S         -0.00036  -0.05207   0.00000  -0.00099  -0.08652
   2        2S          0.00394   0.11058   0.00000   0.00535   0.21815
   3        2PX         0.48860   0.00609   0.00000   0.55229  -0.00139
   4        2PY         0.00000   0.00000   0.55230   0.00000   0.00000
   5        2PZ        -0.00596   0.48135   0.00000   0.00232  -0.47262
   6        3S         -0.00423   0.24124   0.00000  -0.00457   1.18675
   7        3PX         0.24790   0.00166   0.00000   0.36651   0.00382
   8        3PY         0.00000   0.00000   0.36651   0.00000   0.00000
   9        3PZ        -0.00218   0.22773   0.00000   0.00259  -1.15893
  10 2   O  1S         -0.00036  -0.05207   0.00000   0.00099   0.08652
  11        2S          0.00394   0.11058   0.00000  -0.00535  -0.21815
  12        2PX         0.48860   0.00609   0.00000  -0.55229   0.00139
  13        2PY         0.00000   0.00000  -0.55230   0.00000   0.00000
  14        2PZ         0.00596  -0.48135   0.00000   0.00232  -0.47262
  15        3S         -0.00423   0.24124   0.00000   0.00457  -1.18675
  16        3PX         0.24790   0.00166   0.00000  -0.36651  -0.00382
  17        3PY         0.00000   0.00000  -0.36651   0.00000   0.00000
  18        3PZ         0.00218  -0.22773   0.00000   0.00259  -1.15893
                          11        12        13        14        15
                           V         V         V         V         V
     Eigenvalues --     1.01432   1.01477   1.07643   1.11224   1.12781
   1 1   O  1S          0.00450   0.00000   0.02125   0.05969   0.00000
   2        2S         -0.06138   0.00000  -0.15106  -0.68220   0.00000
   3        2PX         0.65398   0.00000   0.05144  -0.03310   0.00000
   4        2PY         0.00000   0.65507   0.00000   0.00000  -0.61758
   5        2PZ        -0.01106   0.00000  -0.69723  -0.45714   0.00000
   6        3S          0.05476   0.00000  -0.85393   0.76030   0.00000
   7        3PX        -0.63545   0.00000  -0.08695   0.03357   0.00000
   8        3PY         0.00000  -0.63665   0.00000   0.00000   1.07487
   9        3PZ         0.01151   0.00000   1.31819   0.59102   0.00000
  10 2   O  1S          0.00450   0.00000  -0.02125   0.05969   0.00000
  11        2S         -0.06138   0.00000   0.15106  -0.68220   0.00000
  12        2PX         0.65398   0.00000  -0.05144  -0.03310   0.00000
  13        2PY         0.00000   0.65507   0.00000   0.00000   0.61758
  14        2PZ         0.01106   0.00000  -0.69723   0.45714   0.00000
  15        3S          0.05476   0.00000   0.85393   0.76030   0.00000
  16        3PX        -0.63545   0.00000   0.08695   0.03357   0.00000
  17        3PY         0.00000  -0.63665   0.00000   0.00000  -1.07487
  18        3PZ        -0.01151   0.00000   1.31819  -0.59102   0.00000
                          16        17        18
                           V         V         V
     Eigenvalues --     1.12808   1.23980   1.66660
   1 1   O  1S          0.00137  -0.03701   0.02364
   2        2S          0.00443   0.83804  -1.24302
   3        2PX        -0.61541   0.01851  -0.00700
   4        2PY         0.00000   0.00000   0.00000
   5        2PZ        -0.05647  -0.44049   0.08447
   6        3S         -0.11997  -0.52478   3.51634
   7        3PX         1.07123  -0.01974   0.01525
   8        3PY         0.00000   0.00000   0.00000
   9        3PZ         0.13569   0.62974  -1.79740
  10 2   O  1S         -0.00137  -0.03701  -0.02364
  11        2S         -0.00443   0.83804   1.24302
  12        2PX         0.61541   0.01851   0.00700
  13        2PY         0.00000   0.00000   0.00000
  14        2PZ        -0.05647   0.44049   0.08447
  15        3S          0.11997  -0.52478  -3.51634
  16        3PX        -1.07123  -0.01974  -0.01525
  17        3PY         0.00000   0.00000   0.00000
  18        3PZ         0.13569  -0.62974  -1.79740
     Beta Molecular Orbital Coefficients:
                           1         2         3         4         5
                           O         O         O         O         O
     Eigenvalues --   -20.71877 -20.71768  -1.60766  -1.00049  -0.68879
   1 1   O  1S          0.70442   0.70446  -0.15074  -0.15940  -0.05714
   2        2S          0.01345   0.01426   0.34656   0.37472   0.10934
   3        2PX        -0.00003  -0.00003  -0.00218  -0.00413  -0.01452
   4        2PY         0.00000   0.00000   0.00000   0.00000   0.00000
   5        2PZ        -0.00143  -0.00160  -0.18535   0.13994   0.46235
   6        3S         -0.00256  -0.00850   0.24963   0.47299   0.27205
   7        3PX         0.00001   0.00001  -0.00230  -0.00601  -0.01188
   8        3PY         0.00000   0.00000   0.00000   0.00000   0.00000
   9        3PZ         0.00079   0.00380  -0.04856   0.04242   0.23884
  10 2   O  1S          0.70442  -0.70446  -0.15074   0.15940  -0.05714
  11        2S          0.01345  -0.01426   0.34656  -0.37472   0.10934
  12        2PX        -0.00003   0.00003  -0.00218   0.00413  -0.01452
  13        2PY         0.00000   0.00000   0.00000   0.00000   0.00000
  14        2PZ         0.00143  -0.00160   0.18535   0.13994  -0.46235
  15        3S         -0.00256   0.00850   0.24963  -0.47299   0.27205
  16        3PX         0.00001  -0.00001  -0.00230   0.00601  -0.01188
  17        3PY         0.00000   0.00000   0.00000   0.00000   0.00000
  18        3PZ        -0.00079   0.00380   0.04856   0.04242  -0.23884
                           6         7         8         9        10
                           O         O         V         V         V
     Eigenvalues --    -0.57809  -0.57793   0.08835   0.08840   0.46292
   1 1   O  1S          0.00000  -0.00321   0.00000  -0.00141  -0.09804
   2        2S          0.00000   0.00963   0.00000   0.00676   0.22510
   3        2PX         0.00000   0.40944   0.00000   0.45294  -0.00085
   4        2PY         0.40972   0.00000   0.45297   0.00000   0.00000
   5        2PZ         0.00000   0.01506   0.00000   0.00378  -0.43470
   6        3S          0.00000   0.00878   0.00000  -0.00716   1.33315
   7        3PX         0.00000   0.31955   0.00000   0.52421   0.00483
   8        3PY         0.31977   0.00000   0.52424   0.00000   0.00000
   9        3PZ         0.00000   0.00929   0.00000   0.00670  -1.24718
  10 2   O  1S          0.00000  -0.00321   0.00000   0.00141   0.09804
  11        2S          0.00000   0.00963   0.00000  -0.00676  -0.22510
  12        2PX         0.00000   0.40944   0.00000  -0.45294   0.00085
  13        2PY         0.40972   0.00000  -0.45297   0.00000   0.00000
  14        2PZ         0.00000  -0.01506   0.00000   0.00378  -0.43470
  15        3S          0.00000   0.00878   0.00000   0.00716  -1.33315
  16        3PX         0.00000   0.31955   0.00000  -0.52421  -0.00483
  17        3PY         0.31977   0.00000  -0.52424   0.00000   0.00000
  18        3PZ         0.00000  -0.00929   0.00000   0.00670  -1.24718
                          11        12        13        14        15
                           V         V         V         V         V
     Eigenvalues --     1.10934   1.13825   1.14062   1.15208   1.25037
   1 1   O  1S          0.01881   0.02403   0.00000   0.05140   0.00000
   2        2S         -0.13322  -0.26148   0.00000  -0.49184   0.00000
   3        2PX         0.02288   0.65575   0.00000  -0.26095   0.00000
   4        2PY         0.00000   0.00000   0.70713   0.00000  -0.69373
   5        2PZ        -0.71819  -0.17417   0.00000  -0.49975   0.00000
   6        3S         -0.85055   0.28178   0.00000   0.59846   0.00000
   7        3PX        -0.03114  -0.55949   0.00000   0.22341   0.00000
   8        3PY         0.00000   0.00000  -0.60375   0.00000   1.00740
   9        3PZ         1.29570   0.21920   0.00000   0.64177   0.00000
  10 2   O  1S         -0.01881   0.02403   0.00000   0.05140   0.00000
  11        2S          0.13322  -0.26148   0.00000  -0.49184   0.00000
  12        2PX        -0.02288   0.65575   0.00000  -0.26095   0.00000
  13        2PY         0.00000   0.00000   0.70713   0.00000   0.69373
  14        2PZ        -0.71819   0.17417   0.00000   0.49975   0.00000
  15        3S          0.85055   0.28178   0.00000   0.59846   0.00000
  16        3PX         0.03114  -0.55949   0.00000   0.22341   0.00000
  17        3PY         0.00000   0.00000  -0.60375   0.00000  -1.00740
  18        3PZ         1.29570  -0.21920   0.00000  -0.64177   0.00000
                          16        17        18
                           V         V         V
     Eigenvalues --     1.25040   1.25735   1.71421
   1 1   O  1S          0.00035  -0.04924   0.02732
   2        2S          0.01535   0.94289  -1.25422
   3        2PX        -0.69329   0.04403  -0.00986
   4        2PY         0.00000   0.00000   0.00000
   5        2PZ        -0.02275  -0.36461   0.08574
   6        3S         -0.08662  -0.62917   3.47354
   7        3PX         1.00675  -0.03966   0.01753
   8        3PY         0.00000   0.00000   0.00000
   9        3PZ         0.07342   0.52894  -1.75771
  10 2   O  1S         -0.00035  -0.04924  -0.02732
  11        2S         -0.01535   0.94289   1.25422
  12        2PX         0.69329   0.04403   0.00986
  13        2PY         0.00000   0.00000   0.00000
  14        2PZ        -0.02275   0.36461   0.08574
  15        3S          0.08662  -0.62917  -3.47354
  16        3PX        -1.00675  -0.03966  -0.01753
  17        3PY         0.00000   0.00000   0.00000
  18        3PZ         0.07342  -0.52894  -1.75771
     Alpha Density Matrix:
                           1         2         3         4         5
   1 1   O  1S          1.04679
   2        2S         -0.11209   0.32703
   3        2PX        -0.00049   0.00415   0.54380
   4        2PY         0.00000   0.00000   0.00000   0.54382
   5        2PZ        -0.02041   0.03601   0.00130   0.00000   0.27065
   6        3S         -0.14689   0.33296  -0.00456   0.00000   0.13690
   7        3PX         0.00048   0.00068   0.32356   0.00000   0.00001
   8        3PY         0.00000   0.00000   0.00000   0.32356   0.00000
   9        3PZ         0.00296  -0.00323   0.00188   0.00000   0.11152
  10 2   O  1S         -0.00099   0.00205  -0.00007   0.00000   0.01957
  11        2S          0.00205  -0.00669  -0.00005   0.00000  -0.05481
  12        2PX        -0.00007  -0.00005  -0.06625   0.00000  -0.00079
  13        2PY         0.00000   0.00000   0.00000  -0.06625   0.00000
  14        2PZ        -0.01957   0.05481   0.00079   0.00000  -0.24585
  15        3S          0.04379  -0.09922   0.00270   0.00000   0.01891
  16        3PX        -0.00023   0.00020  -0.08129   0.00000  -0.00076
  17        3PY         0.00000   0.00000   0.00000  -0.08129   0.00000
  18        3PZ         0.01418  -0.02586   0.00113   0.00000  -0.11949
                           6         7         8         9        10
   6        3S          0.39427
   7        3PX        -0.00499   0.19581
   8        3PY         0.00000   0.00000   0.19578
   9        3PZ         0.02745   0.00101   0.00000   0.05447
  10 2   O  1S          0.04379  -0.00023   0.00000  -0.01418   1.04679
  11        2S         -0.09922   0.00020   0.00000   0.02586  -0.11209
  12        2PX         0.00270  -0.08129   0.00000  -0.00113  -0.00049
  13        2PY         0.00000   0.00000  -0.08129   0.00000   0.00000
  14        2PZ        -0.01891   0.00076   0.00000  -0.11949   0.02041
  15        3S         -0.16751   0.00281   0.00000   0.06549  -0.14689
  16        3PX         0.00281  -0.07289   0.00000  -0.00119   0.00048
  17        3PY         0.00000   0.00000  -0.07288   0.00000   0.00000
  18        3PZ        -0.06549   0.00119   0.00000  -0.05186  -0.00296
                          11        12        13        14        15
  11        2S          0.32703
  12        2PX         0.00415   0.54380
  13        2PY         0.00000   0.00000   0.54382
  14        2PZ        -0.03601  -0.00130   0.00000   0.27065
  15        3S          0.33296  -0.00456   0.00000  -0.13690   0.39427
  16        3PX         0.00068   0.32356   0.00000  -0.00001  -0.00499
  17        3PY         0.00000   0.00000   0.32356   0.00000   0.00000
  18        3PZ         0.00323  -0.00188   0.00000   0.11152  -0.02745
                          16        17        18
  16        3PX         0.19581
  17        3PY         0.00000   0.19578
  18        3PZ        -0.00101   0.00000   0.05447
     Beta Density Matrix:
                           1         2         3         4         5
   1 1   O  1S          1.04388
   2        2S         -0.09873   0.27295
   3        2PX         0.00047   0.00005   0.16788
   4        2PY         0.00000   0.00000   0.00000   0.16787
   5        2PZ        -0.02297   0.03886  -0.00072   0.00000   0.26794
   6        3S         -0.13640   0.29342  -0.00286   0.00000   0.14585
   7        3PX         0.00097  -0.00127   0.13104   0.00000  -0.00110
   8        3PY         0.00000   0.00000   0.00000   0.13102   0.00000
   9        3PZ        -0.00989   0.02534   0.00026   0.00000   0.12550
  10 2   O  1S          0.00054   0.00064  -0.00081   0.00000   0.02390
  11        2S          0.00064  -0.00828   0.00315   0.00000  -0.06597
  12        2PX        -0.00081   0.00315   0.16784   0.00000   0.00043
  13        2PY         0.00000   0.00000   0.00000   0.16787   0.00000
  14        2PZ        -0.02390   0.06597  -0.00043   0.00000  -0.22877
  15        3S          0.02637  -0.06081   0.00105   0.00000   0.01345
  16        3PX        -0.00096   0.00323   0.13099   0.00000   0.00059
  17        3PY         0.00000   0.00000   0.00000   0.13102   0.00000
  18        3PZ         0.00172   0.00656  -0.00061   0.00000  -0.11363
                           6         7         8         9        10
   6        3S          0.36020
   7        3PX        -0.00385   0.10230
   8        3PY         0.00000   0.00000   0.10226
   9        3PZ         0.07297  -0.00001   0.00000   0.06130
  10 2   O  1S          0.02637  -0.00096   0.00000  -0.00172   1.04388
  11        2S         -0.06081   0.00323   0.00000  -0.00656  -0.09873
  12        2PX         0.00105   0.13099   0.00000   0.00061   0.00047
  13        2PY         0.00000   0.00000   0.13102   0.00000   0.00000
  14        2PZ        -0.01345  -0.00059   0.00000  -0.11363   0.02297
  15        3S         -0.08738   0.00184   0.00000   0.03290  -0.13640
  16        3PX         0.00184   0.10222   0.00000   0.00050   0.00097
  17        3PY         0.00000   0.00000   0.10226   0.00000   0.00000
  18        3PZ        -0.03290  -0.00050   0.00000  -0.05767   0.00989
                          11        12        13        14        15
  11        2S          0.27295
  12        2PX         0.00005   0.16788
  13        2PY         0.00000   0.00000   0.16787
  14        2PZ        -0.03886   0.00072   0.00000   0.26794
  15        3S          0.29342  -0.00286   0.00000  -0.14585   0.36020
  16        3PX        -0.00127   0.13104   0.00000   0.00110  -0.00385
  17        3PY         0.00000   0.00000   0.13102   0.00000   0.00000
  18        3PZ        -0.02534  -0.00026   0.00000   0.12550  -0.07297
                          16        17        18
  16        3PX         0.10230
  17        3PY         0.00000   0.10226
  18        3PZ         0.00001   0.00000   0.06130
    Full Mulliken population analysis:
                           1         2         3         4         5
   1 1   O  1S          2.09068
   2        2S         -0.04927   0.59997
   3        2PX         0.00000   0.00000   0.71167
   4        2PY         0.00000   0.00000   0.00000   0.71169
   5        2PZ         0.00000   0.00000   0.00000   0.00000   0.53859
   6        3S         -0.04739   0.47833   0.00000   0.00000   0.00000
   7        3PX         0.00000   0.00000   0.22799   0.00000   0.00000
   8        3PY         0.00000   0.00000   0.00000   0.22798   0.00000
   9        3PZ         0.00000   0.00000   0.00000   0.00000   0.11887
  10 2   O  1S          0.00000   0.00001   0.00000   0.00000  -0.00044
  11        2S          0.00001  -0.00124   0.00000   0.00000   0.01615
  12        2PX         0.00000   0.00000   0.00417   0.00000   0.00000
  13        2PY         0.00000   0.00000   0.00000   0.00417   0.00000
  14        2PZ        -0.00044   0.01615   0.00000   0.00000   0.09191
  15        3S          0.00294  -0.04024   0.00000   0.00000  -0.00613
  16        3PX         0.00000   0.00000   0.00787   0.00000   0.00000
  17        3PY         0.00000   0.00000   0.00000   0.00788   0.00000
  18        3PZ         0.00154  -0.00903   0.00000   0.00000   0.04803
                           6         7         8         9        10
   6        3S          0.75448
   7        3PX         0.00000   0.29810
   8        3PY         0.00000   0.00000   0.29804
   9        3PZ         0.00000   0.00000   0.00000   0.11577
  10 2   O  1S          0.00294   0.00000   0.00000   0.00154   2.09068
  11        2S         -0.04024   0.00000   0.00000  -0.00903  -0.04927
  12        2PX         0.00000   0.00787   0.00000   0.00000   0.00000
  13        2PY         0.00000   0.00000   0.00788   0.00000   0.00000
  14        2PZ        -0.00613   0.00000   0.00000   0.04803   0.00000
  15        3S         -0.12478   0.00000   0.00000  -0.05757  -0.04739
  16        3PX         0.00000   0.01436   0.00000   0.00000   0.00000
  17        3PY         0.00000   0.00000   0.01438   0.00000   0.00000
  18        3PZ        -0.05757   0.00000   0.00000   0.02298   0.00000
                          11        12        13        14        15
  11        2S          0.59997
  12        2PX         0.00000   0.71167
  13        2PY         0.00000   0.00000   0.71169
  14        2PZ         0.00000   0.00000   0.00000   0.53859
  15        3S          0.47833   0.00000   0.00000   0.00000   0.75448
  16        3PX         0.00000   0.22799   0.00000   0.00000   0.00000
  17        3PY         0.00000   0.00000   0.22798   0.00000   0.00000
  18        3PZ         0.00000   0.00000   0.00000   0.11887   0.00000
                          16        17        18
  16        3PX         0.29810
  17        3PY         0.00000   0.29804
  18        3PZ         0.00000   0.00000   0.11577
     Gross orbital populations:
                         Total     Alpha     Beta      Spin
   1 1   O  1S          1.99808   0.99905   0.99903   0.00002
   2        2S          0.99468   0.52481   0.46986   0.05495
   3        2PX         0.95171   0.69048   0.26123   0.42924
   4        2PY         0.95172   0.69050   0.26122   0.42928
   5        2PZ         0.80698   0.40236   0.40462  -0.00227
   6        3S          0.95964   0.47694   0.48270  -0.00576
   7        3PX         0.54833   0.30952   0.23881   0.07070
   8        3PY         0.54828   0.30950   0.23878   0.07072
   9        3PZ         0.24058   0.09685   0.14374  -0.04689
  10 2   O  1S          1.99808   0.99905   0.99903   0.00002
  11        2S          0.99468   0.52481   0.46986   0.05495
  12        2PX         0.95171   0.69048   0.26123   0.42924
  13        2PY         0.95172   0.69050   0.26122   0.42928
  14        2PZ         0.80698   0.40236   0.40462  -0.00227
  15        3S          0.95964   0.47694   0.48270  -0.00576
  16        3PX         0.54833   0.30952   0.23881   0.07070
  17        3PY         0.54828   0.30950   0.23878   0.07072
  18        3PZ         0.24058   0.09685   0.14374  -0.04689
          Condensed to atoms (all electrons):
               1          2
     1  O    8.032028  -0.032028
     2  O   -0.032028   8.032028
          Atomic-Atomic Spin Densities.
               1          2
     1  O    1.448692  -0.448692
     2  O   -0.448692   1.448692
 Mulliken charges and spin densities:
               1          2
     1  O    0.000000   1.000000
     2  O    0.000000   1.000000
 Sum of Mulliken charges =   0.00000   2.00000
 Mulliken charges and spin densities with hydrogens summed into heavy atoms:
               1          2
     1  O    0.000000   1.000000
     2  O    0.000000   1.000000
 Electronic spatial extent (au):  <R**2>=             44.3477
 Charge=              0.0000 electrons
 Dipole moment (field-independent basis, Debye):
    X=              0.0649    Y=              0.0000    Z=              0.0000  Tot=              0.0649
 Quadrupole moment (field-independent basis, Debye-Ang):
   XX=             -9.9977   YY=             -9.9975   ZZ=            -11.1900
   XY=              0.0000   XZ=              0.0000   YZ=              0.0000
 Traceless Quadrupole moment (field-independent basis, Debye-Ang):
   XX=              0.3973   YY=              0.3976   ZZ=             -0.7949
   XY=              0.0000   XZ=              0.0000   YZ=              0.0000
 Octapole moment (field-independent basis, Debye-Ang**2):
  XXX=              0.0506  YYY=              0.0000  ZZZ=              0.0000  XYY=              0.0169
  XXY=              0.0000  XXZ=              0.0000  XZZ=              0.0457  YZZ=              0.0000
  YYZ=              0.0000  XYZ=              0.0000
 Hexadecapole moment (field-independent basis, Debye-Ang**3):
 XXXX=             -6.6862 YYYY=             -6.6859 ZZZZ=            -29.0839 XXXY=              0.0000
 XXXZ=              0.0000 YYYX=              0.0000 YYYZ=              0.0000 ZZZX=              0.0000
 ZZZY=              0.0000 XXYY=             -2.2287 XXZZ=             -6.1245 YYZZ=             -6.1243
 XXYZ=              0.0000 YYXZ=              0.0000 ZZXY=              0.0000
 N-N= 2.782461435104D+01 E-N=-4.102461000019D+02  KE= 1.495116797344D+02
 Orbital energies and kinetic energies (alpha):
                                 1                 2
   1         O               -20.774129         29.178440
   2         O               -20.773654         29.170597
   3         O                -1.752179          2.984957
   4         O                -1.209056          3.460521
   5         O                -0.852675          2.443132
   6         O                -0.852672          2.443067
   7         O                -0.750778          2.717444
   8         O                -0.575298          3.092058
   9         O                -0.575277          3.092124
  10         V                 0.382314          3.438944
  11         V                 1.014316          3.305261
  12         V                 1.014771          3.302957
  13         V                 1.076431          3.944776
  14         V                 1.112237          3.351493
  15         V                 1.127812          3.066077
  16         V                 1.128080          3.070019
  17         V                 1.239803          3.218184
  18         V                 1.666600          3.491605
 Orbital energies and kinetic energies (beta):
                                 1                 2
   1         O               -20.718770         29.231908
   2         O               -20.717685         29.230908
   3         O                -1.607662          2.801213
   4         O                -1.000492          3.163625
   5         O                -0.688792          2.615380
   6         O                -0.578091          1.942561
   7         O                -0.577931          1.943746
   8         V                 0.088354          2.425995
   9         V                 0.088401          2.426175
  10         V                 0.462921          3.398315
  11         V                 1.109338          4.117278
  12         V                 1.138246          3.764592
  13         V                 1.140624          3.803529
  14         V                 1.152076          3.439383
  15         V                 1.250374          3.732140
  16         V                 1.250404          3.731964
  17         V                 1.257346          3.402626
  18         V                 1.714214          3.600321
 Total kinetic energy from orbitals= 1.495116797344D+02
                          Isotropic Fermi Contact Couplings
        Atom                 a.u.       MegaHertz       Gauss      10(-4) cm-1
     1  O(17)              0.43702    -132.45956     -47.26487     -44.18375
     2  O(17)              0.43702    -132.45956     -47.26487     -44.18375
 --------------------------------------------------------
       Center         ----  Spin Dipole Couplings  ----
                      3XX-RR        3YY-RR        3ZZ-RR
 --------------------------------------------------------
     1   Atom        1.296772      1.297137     -2.593909
     2   Atom        1.296772      1.297137     -2.593909
 --------------------------------------------------------
                        XY            XZ            YZ
 --------------------------------------------------------
     1   Atom        0.000000      0.021268      0.000000
     2   Atom        0.000000     -0.021268      0.000000
 --------------------------------------------------------


 ---------------------------------------------------------------------------------
              Anisotropic Spin Dipole Couplings in Principal Axis System
 ---------------------------------------------------------------------------------

       Atom             a.u.   MegaHertz   Gauss  10(-4) cm-1        Axes

              Baa    -2.5940   187.702    66.977    62.611 -0.0055  0.0000  1.0000
     1 O(17)  Bbb     1.2969   -93.842   -33.485   -31.302  1.0000  0.0000  0.0055
              Bcc     1.2971   -93.860   -33.492   -31.308  0.0000  1.0000  0.0000
 
              Baa    -2.5940   187.702    66.977    62.611  0.0055  0.0000  1.0000
     2 O(17)  Bbb     1.2969   -93.842   -33.485   -31.302  1.0000  0.0000 -0.0055
              Bcc     1.2971   -93.860   -33.492   -31.308  0.0000  1.0000  0.0000
 

 ---------------------------------------------------------------------------------

 No NMR shielding tensors so no spin-rotation constants.
 Leave Link  601 at Tue Sep 29 11:37:12 2015, MaxMem=    33554432 cpu:               0.2 elap:               0.2
 (Enter /home/gauss/gdvi01p/gdv/l9999.exe)
 Unable to Open any file for archive entry.
 1\1\GINC-MEDUSA\SP\UHF\6-31G\O2(3)\DBWY\29-Sep-2015\0\\#p uhf/6-31G gf
 input pop=full nosymm Field=X-100\\O2 6-31G\\0,3\O,0,0.,0.,0.608586\O,
 0,0.,0.,-0.608586\\Version=ES64L-GDVRevI.01+\HF=-149.5451653\S2=2.0339
 12\S2-1=0.\S2A=2.000578\RMSD=3.558e-09\Dipole=0.0255511,0.,0.\Quadrupo
 le=0.2954131,0.2955805,-0.5909935,0.,0.,0.\PG=D*H [C*(O1.O1)]\\@
 The archive entry for this job was punched.


 THEORY:  SUPPOSITION WHICH HAS SCIENTIFIC BASIS,
          BUT NOT EXPERIMENTALLY PROVEN.
 FACT:    A THEORY WHICH HAS BEEN PROVEN BY ENOUGH 
          MONEY TO PAY FOR THE EXPERIMENTS.

                          --  THE WIZARD OF ID
 Job cpu time:       0 days  0 hours  0 minutes  0.8 seconds.
 Elapsed time:       0 days  0 hours  0 minutes  0.6 seconds.
 File lengths (MBytes):  RWF=      5 Int=      0 D2E=      0 Chk=      1 Scr=      1
 Normal termination of Gaussian DV at Tue Sep 29 11:37:12 2015.
