 Entering Gaussian System, Link 0=gdv
 Input=O2_6-31G_ROHF_field.com
 Output=O2_6-31G_ROHF_field.log
 Initial command:
 /home/gauss/gdvi01p/gdv/l1.exe "/home/GauScr/Gau-316.inp" -scrdir="/home/GauScr/"
 Entering Link 1 = /home/gauss/gdvi01p/gdv/l1.exe PID=       317.
  
 Copyright (c) 1988,1990,1992,1993,1995,1998,2003,2009,2014,
            Gaussian, Inc.  All Rights Reserved.
  
 This is the private, development version of
 the Gaussian(R) DV system of programs. It is based on
 the Gaussian(R) 09 system (copyright 2009, Gaussian, Inc.),
 the Gaussian(R) 03 system (copyright 2003, Gaussian, Inc.),
 the Gaussian(R) 98 system (copyright 1998, Gaussian, Inc.),
 the Gaussian(R) 94 system (copyright 1995, Gaussian, Inc.),
 the Gaussian 92(TM) system (copyright 1992, Gaussian, Inc.),
 the Gaussian 90(TM) system (copyright 1990, Gaussian, Inc.),
 the Gaussian 88(TM) system (copyright 1988, Gaussian, Inc.),
 the Gaussian 86(TM) system (copyright 1986, Carnegie Mellon
 University), and the Gaussian 82(TM) system (copyright 1983,
 Carnegie Mellon University). Gaussian is a federally registered
 trademark of Gaussian, Inc.
  
 This software contains proprietary and confidential information,
 including trade secrets, belonging to Gaussian, Inc.
  
 This software is provided under written license and may be
 used, copied, transmitted, or stored only in accord with that
 written license.
  
 The following legend is applicable only to US Government
 contracts under FAR:
  
                    RESTRICTED RIGHTS LEGEND
  
 Use, reproduction and disclosure by the US Government is
 subject to restrictions as set forth in subparagraphs (a)
 and (c) of the Commercial Computer Software - Restricted
 Rights clause in FAR 52.227-19.
  
 Gaussian, Inc.
 340 Quinnipiac St., Bldg. 40, Wallingford CT 06492
  
  
 ---------------------------------------------------------------
 Warning -- This program may not be used in any manner that
 competes with the business of Gaussian, Inc. or will provide
 assistance to any competitor of Gaussian, Inc.  The licensee
 of this program is prohibited from giving any competitor of
 Gaussian, Inc. access to this program.  By using this program,
 the user acknowledges that Gaussian, Inc. is engaged in the
 business of creating and licensing software in the field of
 computational chemistry and represents and warrants to the
 licensee that it is not a competitor of Gaussian, Inc. and that
 it will not use this program in any manner prohibited above.
 ---------------------------------------------------------------
  

 Cite this work as:
 Gaussian Development Version, Revision I.01+,
 M. J. Frisch, G. W. Trucks, H. B. Schlegel, G. E. Scuseria, 
 M. A. Robb, J. R. Cheeseman, G. Scalmani, V. Barone, B. Mennucci, 
 G. A. Petersson, H. Nakatsuji, M. Caricato, X. Li, H. P. Hratchian, 
 A. F. Izmaylov, J. Bloino, B. G. Janesko, F. Lipparini, G. Zheng, 
 J. L. Sonnenberg, W. Liang, M. Hada, M. Ehara, K. Toyota, R. Fukuda, 
 J. Hasegawa, M. Ishida, T. Nakajima, Y. Honda, O. Kitao, H. Nakai, 
 T. Vreven, J. A. Montgomery, Jr., J. E. Peralta, F. Ogliaro, 
 M. Bearpark, J. J. Heyd, E. Brothers, K. N. Kudin, V. N. Staroverov, 
 T. Keith, R. Kobayashi, J. Normand, K. Raghavachari, A. Rendell, 
 J. C. Burant, S. S. Iyengar, J. Tomasi, M. Cossi, N. Rega, 
 J. M. Millam, M. Klene, J. E. Knox, J. B. Cross, V. Bakken, 
 C. Adamo, J. Jaramillo, R. Gomperts, R. E. Stratmann, O. Yazyev, 
 A. J. Austin, R. Cammi, C. Pomelli, J. W. Ochterski, R. L. Martin, 
 K. Morokuma, V. G. Zakrzewski, G. A. Voth, P. Salvador, 
 J. J. Dannenberg, S. Dapprich, P. V. Parandekar, N. J. Mayhall, 
 A. D. Daniels, O. Farkas, J. B. Foresman, J. V. Ortiz, 
 J. Cioslowski, and D. J. Fox, Gaussian, Inc., Wallingford CT, 2010.
 
 *******************************************
 Gaussian DV:  ES64L-GDVRevI.01+ 11-Sep-2014
                 29-Sep-2015 
 *******************************************
 -------------------------------------------------
 #p rohf/6-31G gfinput pop=full nosymm Field=X-100
 -------------------------------------------------
 1/38=1,172=1/1;
 2/12=2,15=1,17=6,18=5,40=1/2;
 3/5=1,6=6,11=2,14=1,15=-100,24=10,25=1,30=1,116=101/1,2,3;
 4//1;
 5/5=2,38=5/2;
 6/7=3,28=1/1;
 99/5=1,9=1/99;
 Leave Link    1 at Tue Sep 29 11:37:12 2015, MaxMem=           0 cpu:               0.0 elap:               0.0
 (Enter /home/gauss/gdvi01p/gdv/l101.exe)
 --------
 O2 6-31G
 --------
 Symbolic Z-matrix:
 Charge =  0 Multiplicity = 3
 O                     0.        0.        0.60859 
 O                     0.        0.       -0.60859 
 
 ITRead=  0  0
 MicOpt= -1 -1
 NAtoms=      2 NQM=        2 NQMF=       0 NMMI=      0 NMMIF=      0
                NMic=       0 NMicF=      0.
                    Isotopes and Nuclear Properties:
 (Nuclear quadrupole moments (NQMom) in fm**2, nuclear magnetic moments (NMagM)
  in nuclear magnetons)

  Atom         1           2
 IAtWgt=          16          16
 AtmWgt=  15.9949146  15.9949146
 NucSpn=           0           0
 AtZEff=   0.0000000   0.0000000
 NQMom=    0.0000000   0.0000000
 NMagM=    0.0000000   0.0000000
 AtZNuc=   8.0000000   8.0000000
 Leave Link  101 at Tue Sep 29 11:37:12 2015, MaxMem=    33554432 cpu:               0.1 elap:               0.1
 (Enter /home/gauss/gdvi01p/gdv/l202.exe)
                          Input orientation:                          
 ---------------------------------------------------------------------
 Center     Atomic      Atomic             Coordinates (Angstroms)
 Number     Number       Type             X           Y           Z
 ---------------------------------------------------------------------
      1          8           0        0.000000    0.000000    0.608586
      2          8           0        0.000000    0.000000   -0.608586
 ---------------------------------------------------------------------
 Symmetry turned off by external request.
 Stoichiometry    O2(3)
 Framework group  D*H[C*(O.O)]
 Deg. of freedom     1
 Full point group                 D*H     NOp   8
 Rotational constants (GHZ):      0.0000000     42.6541569     42.6541569
 Leave Link  202 at Tue Sep 29 11:37:12 2015, MaxMem=    33554432 cpu:               0.0 elap:               0.0
 (Enter /home/gauss/gdvi01p/gdv/l301.exe)
 Standard basis: 6-31G (6D, 7F)
 Ernie: Thresh=  0.10000D-02 Tol=  0.10000D-05 Strict=F.
 The following finite field(s) will be applied:
 An electric field of             -0.0100  0.0000  0.0000
 AO basis set in the form of general basis input (Overlap normalization):
      1 0
 S   6 1.00       0.000000000000
      0.5484671660D+04  0.1831074430D-02
      0.8252349460D+03  0.1395017220D-01
      0.1880469580D+03  0.6844507810D-01
      0.5296450000D+02  0.2327143360D+00
      0.1689757040D+02  0.4701928980D+00
      0.5799635340D+01  0.3585208530D+00
 SP   3 1.00       0.000000000000
      0.1553961625D+02 -0.1107775495D+00  0.7087426823D-01
      0.3599933586D+01 -0.1480262627D+00  0.3397528391D+00
      0.1013761750D+01  0.1130767015D+01  0.7271585773D+00
 SP   1 1.00       0.000000000000
      0.2700058226D+00  0.1000000000D+01  0.1000000000D+01
 ****
      2 0
 S   6 1.00       0.000000000000
      0.5484671660D+04  0.1831074430D-02
      0.8252349460D+03  0.1395017220D-01
      0.1880469580D+03  0.6844507810D-01
      0.5296450000D+02  0.2327143360D+00
      0.1689757040D+02  0.4701928980D+00
      0.5799635340D+01  0.3585208530D+00
 SP   3 1.00       0.000000000000
      0.1553961625D+02 -0.1107775495D+00  0.7087426823D-01
      0.3599933586D+01 -0.1480262627D+00  0.3397528391D+00
      0.1013761750D+01  0.1130767015D+01  0.7271585773D+00
 SP   1 1.00       0.000000000000
      0.2700058226D+00  0.1000000000D+01  0.1000000000D+01
 ****

    18 basis functions,    44 primitive gaussians,    18 cartesian basis functions
     9 alpha electrons        7 beta electrons
       nuclear repulsion energy        27.8246143510 Hartrees.
 IExCor=    0 DFT=F Ex=HF Corr=None ExCW=0 ScaHFX=  1.000000
 ScaDFX=  1.000000  1.000000  1.000000  1.000000 ScalE2=  1.000000  1.000000
 IRadAn=      0 IRanWt=     -1 IRanGd=            0 ICorTp=0 IEmpDi=  4
 NAtoms=    2 NActive=    2 NUniq=    2 SFac= 1.00D+00 NAtFMM=   60 NAOKFM=F Big=F
 Integral buffers will be    131072 words long.
 Raffenetti 2 integral format.
 Two-electron integral symmetry is turned off.
 Leave Link  301 at Tue Sep 29 11:37:12 2015, MaxMem=    33554432 cpu:               0.0 elap:               0.0
 (Enter /home/gauss/gdvi01p/gdv/l302.exe)
 NPDir=0 NMtPBC=     1 NCelOv=     1 NCel=       1 NClECP=     1 NCelD=      1
         NCelK=      1 NCelE2=     1 NClLst=     1 CellRange=     0.0.
 One-electron integrals computed using PRISM.
 One-electron integral symmetry used in STVInt
 NBasis=    18 RedAO= T EigKep=  2.35D-02  NBF=    18
 NBsUse=    18 1.00D-06 EigRej= -1.00D+00 NBFU=    18
 Leave Link  302 at Tue Sep 29 11:37:12 2015, MaxMem=    33554432 cpu:               0.1 elap:               0.1
 (Enter /home/gauss/gdvi01p/gdv/l303.exe)
 DipDrv:  MaxL=1.
 The nuclear repulsion energy is now        27.8246143510 hartrees.
 Leave Link  303 at Tue Sep 29 11:37:12 2015, MaxMem=    33554432 cpu:               0.0 elap:               0.0
 (Enter /home/gauss/gdvi01p/gdv/l401.exe)
 ExpMin= 2.70D-01 ExpMax= 5.48D+03 ExpMxC= 8.25D+02 IAcc=1 IRadAn=         1 AccDes= 0.00D+00
 Harris functional with IExCor=  205 and IRadAn=       1 diagonalized for initial guess.
 HarFok:  IExCor=  205 AccDes= 0.00D+00 IRadAn=         1 IDoV= 1 UseB2=F ITyADJ=14
 ICtDFT=  3500011 ScaDFX=  1.000000  1.000000  1.000000  1.000000
 FoFCou: FMM=F IPFlag=           0 FMFlag=      100000 FMFlg1=           0
         NFxFlg=           0 DoJE=T BraDBF=F KetDBF=T FulRan=T
         wScrn=  0.000000 ICntrl=       500 IOpCl=  0 I1Cent=   200000004 NGrid=           0
         NMat0=    1 NMatS0=      1 NMatT0=    0 NMatD0=    1 NMtDS0=    0 NMtDT0=    0
 Symmetry not used in FoFCou.
 Harris En= -149.508370647856    
 JPrj=0 DoOrth=F DoCkMO=F.
 Leave Link  401 at Tue Sep 29 11:37:12 2015, MaxMem=    33554432 cpu:               0.1 elap:               0.1
 (Enter /home/gauss/gdvi01p/gdv/l502.exe)
 Keep R1 and R2 ints in memory in canonical form, NReq=834600.
 FoFCou: FMM=F IPFlag=           0 FMFlag=           0 FMFlg1=           0
         NFxFlg=           0 DoJE=F BraDBF=F KetDBF=F FulRan=T
         wScrn=  0.000000 ICntrl=       600 IOpCl=  0 I1Cent=           0 NGrid=           0
         NMat0=    1 NMatS0=    171 NMatT0=    0 NMatD0=    1 NMtDS0=    0 NMtDT0=    0
 Symmetry not used in FoFCou.
 Two-electron integral symmetry not used.
 Restricted open shell SCF:
 Using DIIS extrapolation, IDIIS=  1040.
 NGot=    33554432 LenX=    33523688 LenY=    33522806
 Requested convergence on RMS density matrix=1.00D-08 within 128 cycles.
 Requested convergence on MAX density matrix=1.00D-06.
 Requested convergence on             energy=1.00D-06.
 No special actions if energy rises.

 Cycle   1  Pass 1  IDiag  1:
 E= -149.517996493990    
 DIIS: error= 5.94D-02 at cycle   1 NSaved=   1.
 NSaved= 1 IEnMin= 1 EnMin= -149.517996493990     IErMin= 1 ErrMin= 5.94D-02
 ErrMax= 5.94D-02  0.00D+00 EMaxC= 1.00D-01 BMatC= 3.53D-02 BMatP= 3.53D-02
 IDIUse=3 WtCom= 4.06D-01 WtEn= 5.94D-01
 Coeff-Com:  0.100D+01
 Coeff-En:   0.100D+01
 Coeff:      0.100D+01
 Gap=     0.572 Goal=   None    Shift=    0.000
 GapD=    0.572 DampG=2.000 DampE=0.500 DampFc=1.0000 IDamp=-1.
 RMSDP=5.45D-03 MaxDP=2.20D-02              OVMax= 0.00D+00

 Cycle   2  Pass 1  IDiag  1:
 E= -149.527043455087     Delta-E=       -0.009046961097 Rises=F Damp=F
 DIIS: error= 3.64D-03 at cycle   2 NSaved=   2.
 NSaved= 2 IEnMin= 2 EnMin= -149.527043455087     IErMin= 2 ErrMin= 3.64D-03
 ErrMax= 3.64D-03  0.00D+00 EMaxC= 1.00D-01 BMatC= 2.95D-04 BMatP= 3.53D-02
 IDIUse=3 WtCom= 9.64D-01 WtEn= 3.64D-02
 Coeff-Com: -0.452D-01 0.105D+01
 Coeff-En:   0.000D+00 0.100D+01
 Coeff:     -0.436D-01 0.104D+01
 Gap=     0.566 Goal=   None    Shift=    0.000
 RMSDP=9.66D-04 MaxDP=3.55D-03 DE=-9.05D-03 OVMax= 0.00D+00

 Cycle   3  Pass 1  IDiag  1:
 E= -149.527374485026     Delta-E=       -0.000331029939 Rises=F Damp=F
 DIIS: error= 1.02D-03 at cycle   3 NSaved=   3.
 NSaved= 3 IEnMin= 3 EnMin= -149.527374485026     IErMin= 3 ErrMin= 1.02D-03
 ErrMax= 1.02D-03  0.00D+00 EMaxC= 1.00D-01 BMatC= 2.30D-05 BMatP= 2.95D-04
 IDIUse=3 WtCom= 9.90D-01 WtEn= 1.02D-02
 Coeff-Com: -0.113D-01 0.220D-01 0.989D+00
 Coeff-En:   0.000D+00 0.000D+00 0.100D+01
 Coeff:     -0.112D-01 0.218D-01 0.989D+00
 Gap=     0.565 Goal=   None    Shift=    0.000
 RMSDP=2.71D-04 MaxDP=1.78D-03 DE=-3.31D-04 OVMax= 0.00D+00

 Cycle   4  Pass 1  IDiag  1:
 E= -149.527395692129     Delta-E=       -0.000021207103 Rises=F Damp=F
 DIIS: error= 3.06D-04 at cycle   4 NSaved=   4.
 NSaved= 4 IEnMin= 4 EnMin= -149.527395692129     IErMin= 4 ErrMin= 3.06D-04
 ErrMax= 3.06D-04  0.00D+00 EMaxC= 1.00D-01 BMatC= 1.93D-06 BMatP= 2.30D-05
 IDIUse=3 WtCom= 9.97D-01 WtEn= 3.06D-03
 Coeff-Com:  0.373D-02-0.912D-01 0.118D+00 0.969D+00
 Coeff-En:   0.000D+00 0.000D+00 0.000D+00 0.100D+01
 Coeff:      0.372D-02-0.909D-01 0.118D+00 0.969D+00
 Gap=     0.565 Goal=   None    Shift=    0.000
 RMSDP=7.55D-05 MaxDP=3.52D-04 DE=-2.12D-05 OVMax= 0.00D+00

 Cycle   5  Pass 1  IDiag  1:
 E= -149.527397467357     Delta-E=       -0.000001775228 Rises=F Damp=F
 DIIS: error= 1.56D-05 at cycle   5 NSaved=   5.
 NSaved= 5 IEnMin= 5 EnMin= -149.527397467357     IErMin= 5 ErrMin= 1.56D-05
 ErrMax= 1.56D-05  0.00D+00 EMaxC= 1.00D-01 BMatC= 3.88D-09 BMatP= 1.93D-06
 IDIUse=1 WtCom= 1.00D+00 WtEn= 0.00D+00
 Coeff-Com: -0.613D-03 0.160D-01-0.232D-01-0.183D+00 0.119D+01
 Coeff:     -0.613D-03 0.160D-01-0.232D-01-0.183D+00 0.119D+01
 Gap=     0.565 Goal=   None    Shift=    0.000
 RMSDP=4.03D-06 MaxDP=1.79D-05 DE=-1.78D-06 OVMax= 0.00D+00

 Cycle   6  Pass 1  IDiag  1:
 E= -149.527397472589     Delta-E=       -0.000000005232 Rises=F Damp=F
 DIIS: error= 1.90D-06 at cycle   6 NSaved=   6.
 NSaved= 6 IEnMin= 6 EnMin= -149.527397472589     IErMin= 6 ErrMin= 1.90D-06
 ErrMax= 1.90D-06  0.00D+00 EMaxC= 1.00D-01 BMatC= 4.52D-11 BMatP= 3.88D-09
 IDIUse=1 WtCom= 1.00D+00 WtEn= 0.00D+00
 Coeff-Com:  0.109D-03-0.286D-02 0.410D-02 0.336D-01-0.267D+00 0.123D+01
 Coeff:      0.109D-03-0.286D-02 0.410D-02 0.336D-01-0.267D+00 0.123D+01
 Gap=     0.565 Goal=   None    Shift=    0.000
 RMSDP=4.89D-07 MaxDP=2.15D-06 DE=-5.23D-09 OVMax= 0.00D+00

 Cycle   7  Pass 1  IDiag  1:
 E= -149.527397472650     Delta-E=       -0.000000000061 Rises=F Damp=F
 DIIS: error= 1.10D-07 at cycle   7 NSaved=   7.
 NSaved= 7 IEnMin= 7 EnMin= -149.527397472650     IErMin= 7 ErrMin= 1.10D-07
 ErrMax= 1.10D-07  0.00D+00 EMaxC= 1.00D-01 BMatC= 2.02D-13 BMatP= 4.52D-11
 IDIUse=1 WtCom= 1.00D+00 WtEn= 0.00D+00
 Coeff-Com: -0.598D-05 0.158D-03-0.231D-03-0.186D-02 0.171D-01-0.113D+00
 Coeff-Com:  0.110D+01
 Coeff:     -0.598D-05 0.158D-03-0.231D-03-0.186D-02 0.171D-01-0.113D+00
 Coeff:      0.110D+01
 Gap=     0.565 Goal=   None    Shift=    0.000
 RMSDP=6.74D-08 MaxDP=2.81D-07 DE=-6.10D-11 OVMax= 0.00D+00

 Cycle   8  Pass 1  IDiag  1:
 E= -149.527397472651     Delta-E=       -0.000000000001 Rises=F Damp=F
 DIIS: error= 4.39D-08 at cycle   8 NSaved=   8.
 NSaved= 8 IEnMin= 8 EnMin= -149.527397472651     IErMin= 8 ErrMin= 4.39D-08
 ErrMax= 4.39D-08  0.00D+00 EMaxC= 1.00D-01 BMatC= 1.32D-14 BMatP= 2.02D-13
 IDIUse=1 WtCom= 1.00D+00 WtEn= 0.00D+00
 Coeff-Com: -0.216D-05 0.563D-04-0.800D-04-0.655D-03 0.478D-02-0.159D-01
 Coeff-Com: -0.182D+00 0.119D+01
 Coeff:     -0.216D-05 0.563D-04-0.800D-04-0.655D-03 0.478D-02-0.159D-01
 Coeff:     -0.182D+00 0.119D+01
 Gap=     0.565 Goal=   None    Shift=    0.000
 RMSDP=1.67D-08 MaxDP=7.66D-08 DE=-5.40D-13 OVMax= 0.00D+00

 Cycle   9  Pass 1  IDiag  1:
 E= -149.527397472651     Delta-E=        0.000000000000 Rises=F Damp=F
 DIIS: error= 1.38D-08 at cycle   9 NSaved=   9.
 NSaved= 9 IEnMin= 9 EnMin= -149.527397472651     IErMin= 9 ErrMin= 1.38D-08
 ErrMax= 1.38D-08  0.00D+00 EMaxC= 1.00D-01 BMatC= 1.18D-15 BMatP= 1.32D-14
 IDIUse=1 WtCom= 1.00D+00 WtEn= 0.00D+00
 Coeff-Com:  0.114D-05-0.299D-04 0.427D-04 0.348D-03-0.267D-02 0.109D-01
 Coeff-Com:  0.581D-01-0.670D+00 0.160D+01
 Coeff:      0.114D-05-0.299D-04 0.427D-04 0.348D-03-0.267D-02 0.109D-01
 Coeff:      0.581D-01-0.670D+00 0.160D+01
 Gap=     0.565 Goal=   None    Shift=    0.000
 RMSDP=8.15D-09 MaxDP=3.42D-08 DE=-1.14D-13 OVMax= 0.00D+00

 SCF Done:  E(ROHF) =  -149.527397473     A.U. after    9 cycles
            NFock=  9  Conv=0.82D-08     -V/T= 2.0005
 <Sx>= 0.0000 <Sy>= 0.0000 <Sz>= 1.0000 <S**2>= 2.0000 S= 1.0000
 <L.S>= 0.000000000000E+00
 KE= 1.494568375975D+02 PE=-4.101884313567D+02 EE= 8.337958193552D+01
 Annihilation of the first spin contaminant:
 S**2 before annihilation     2.0000,   after     2.0000
 Leave Link  502 at Tue Sep 29 11:37:12 2015, MaxMem=    33554432 cpu:               0.1 elap:               0.1
 (Enter /home/gauss/gdvi01p/gdv/l601.exe)
 Copying SCF densities to generalized density rwf, IOpCl= 0 IROHF=1.

 **********************************************************************

            Population analysis using the SCF density.

 **********************************************************************

 Alpha  occ. eigenvalues --  -20.74343 -20.74250  -1.66177  -1.07436  -0.71004
 Alpha  occ. eigenvalues --   -0.67150  -0.67125  -0.15541  -0.15539
 Alpha virt. eigenvalues --    0.40964   1.05489   1.05549   1.08711   1.12546
 Alpha virt. eigenvalues --    1.16346   1.16361   1.24311   1.68199
     Molecular Orbital Coefficients:
                           1         2         3         4         5
                           O         O         O         O         O
     Eigenvalues --   -20.74343 -20.74250  -1.66177  -1.07436  -0.71004
   1 1   O  1S          0.70425   0.70425  -0.15330  -0.16403  -0.05556
   2        2S          0.01443   0.01527   0.36528   0.39249   0.11296
   3        2PX        -0.00003  -0.00003  -0.00200  -0.00426  -0.03439
   4        2PY         0.00000   0.00000   0.00000   0.00000   0.00000
   5        2PZ        -0.00138  -0.00172  -0.17782   0.12497   0.46993
   6        3S         -0.00289  -0.00870   0.24003   0.50506   0.25711
   7        3PX         0.00001   0.00001  -0.00216  -0.00586  -0.02255
   8        3PY         0.00000   0.00000   0.00000   0.00000   0.00000
   9        3PZ         0.00079   0.00369  -0.04386  -0.00029   0.23188
  10 2   O  1S          0.70425  -0.70425  -0.15330   0.16403  -0.05556
  11        2S          0.01443  -0.01527   0.36528  -0.39249   0.11296
  12        2PX        -0.00003   0.00003  -0.00200   0.00426  -0.03439
  13        2PY         0.00000   0.00000   0.00000   0.00000   0.00000
  14        2PZ         0.00138  -0.00172   0.17782   0.12497  -0.46993
  15        3S         -0.00289   0.00870   0.24003  -0.50506   0.25711
  16        3PX         0.00001  -0.00001  -0.00216   0.00586  -0.02255
  17        3PY         0.00000   0.00000   0.00000   0.00000   0.00000
  18        3PZ        -0.00079   0.00369   0.04386  -0.00029  -0.23188
                           6         7         8         9        10
                           O         O         O         O         V
     Eigenvalues --    -0.67150  -0.67125  -0.15541  -0.15539   0.40964
   1 1   O  1S          0.00000  -0.00540   0.00000  -0.00167  -0.09193
   2        2S          0.00000   0.01434   0.00000   0.00708   0.22320
   3        2PX         0.00000   0.45082   0.00000   0.54390  -0.00164
   4        2PY         0.45215   0.00000   0.54393   0.00000   0.00000
   5        2PZ         0.00000   0.03520   0.00000   0.00265  -0.45840
   6        3S          0.00000   0.01868   0.00000  -0.00233   1.24645
   7        3PX         0.00000   0.28140   0.00000   0.38095   0.00349
   8        3PY         0.28230   0.00000   0.38097   0.00000   0.00000
   9        3PZ         0.00000   0.01843   0.00000   0.00237  -1.19268
  10 2   O  1S          0.00000  -0.00540   0.00000   0.00167   0.09193
  11        2S          0.00000   0.01434   0.00000  -0.00708  -0.22320
  12        2PX         0.00000   0.45082   0.00000  -0.54390   0.00164
  13        2PY         0.45215   0.00000  -0.54393   0.00000   0.00000
  14        2PZ         0.00000  -0.03520   0.00000   0.00265  -0.45840
  15        3S          0.00000   0.01868   0.00000   0.00233  -1.24645
  16        3PX         0.00000   0.28140   0.00000  -0.38095  -0.00349
  17        3PY         0.28230   0.00000  -0.38097   0.00000   0.00000
  18        3PZ         0.00000  -0.01843   0.00000   0.00237  -1.19268
                          11        12        13        14        15
                           V         V         V         V         V
     Eigenvalues --     1.05489   1.05549   1.08711   1.12546   1.16346
   1 1   O  1S          0.00596   0.00000   0.02062   0.05945   0.00000
   2        2S         -0.07863   0.00000  -0.14596  -0.64405   0.00000
   3        2PX         0.67871   0.00000   0.03611  -0.04746   0.00000
   4        2PY         0.00000   0.68078   0.00000   0.00000  -0.62497
   5        2PZ        -0.01896   0.00000  -0.70539  -0.48147   0.00000
   6        3S          0.07191   0.00000  -0.85292   0.72753   0.00000
   7        3PX        -0.62010   0.00000  -0.05929   0.04449   0.00000
   8        3PY         0.00000  -0.62216   0.00000   0.00000   1.06983
   9        3PZ         0.02142   0.00000   1.31086   0.61839   0.00000
  10 2   O  1S          0.00596   0.00000  -0.02062   0.05945   0.00000
  11        2S         -0.07863   0.00000   0.14596  -0.64405   0.00000
  12        2PX         0.67871   0.00000  -0.03611  -0.04746   0.00000
  13        2PY         0.00000   0.68078   0.00000   0.00000   0.62497
  14        2PZ         0.01896   0.00000  -0.70539   0.48147   0.00000
  15        3S          0.07191   0.00000   0.85292   0.72753   0.00000
  16        3PX        -0.62010   0.00000   0.05929   0.04449   0.00000
  17        3PY         0.00000  -0.62216   0.00000   0.00000  -1.06983
  18        3PZ        -0.02142   0.00000   1.31086  -0.61839   0.00000
                          16        17        18
                           V         V         V
     Eigenvalues --     1.16361   1.24311   1.68199
   1 1   O  1S          0.00076  -0.04128   0.02515
   2        2S          0.00948   0.87411  -1.24774
   3        2PX        -0.62389   0.02397  -0.00751
   4        2PY         0.00000   0.00000   0.00000
   5        2PZ        -0.03920  -0.41895   0.08570
   6        3S         -0.10024  -0.55793   3.50017
   7        3PX         1.06806  -0.02380   0.01599
   8        3PY         0.00000   0.00000   0.00000
   9        3PZ         0.10253   0.60024  -1.78318
  10 2   O  1S         -0.00076  -0.04128  -0.02515
  11        2S         -0.00948   0.87411   1.24774
  12        2PX         0.62389   0.02397   0.00751
  13        2PY         0.00000   0.00000   0.00000
  14        2PZ        -0.03920   0.41895   0.08570
  15        3S          0.10024  -0.55793  -3.50017
  16        3PX        -1.06806  -0.02380  -0.01599
  17        3PY         0.00000   0.00000   0.00000
  18        3PZ         0.10253  -0.60024  -1.78318
     Alpha Density Matrix:
                           1         2         3         4         5
   1 1   O  1S          1.04546
   2        2S         -0.10583   0.30094
   3        2PX        -0.00047   0.00403   0.50027
   4        2PY         0.00000   0.00000   0.00000   0.50029
   5        2PZ        -0.02173   0.03765   0.00097   0.00000   0.26932
   6        3S         -0.14219   0.31503  -0.00431   0.00000   0.14193
   7        3PX         0.00040   0.00110   0.33486   0.00000  -0.00003
   8        3PY         0.00000   0.00000   0.00000   0.33486   0.00000
   9        3PZ        -0.00306   0.01041   0.00171   0.00000   0.11738
  10 2   O  1S         -0.00030   0.00144   0.00000   0.00000   0.02170
  11        2S          0.00144  -0.00772  -0.00033   0.00000  -0.06043
  12        2PX         0.00000  -0.00033  -0.09142   0.00000  -0.00085
  13        2PY         0.00000   0.00000   0.00000  -0.09142   0.00000
  14        2PZ        -0.02170   0.06043   0.00085   0.00000  -0.23806
  15        3S          0.03576  -0.08113   0.00252   0.00000   0.01567
  16        3PX        -0.00026   0.00030  -0.07958   0.00000  -0.00058
  17        3PY         0.00000   0.00000   0.00000  -0.07958   0.00000
  18        3PZ         0.00835  -0.01049   0.00087   0.00000  -0.11745
                           6         7         8         9        10
   6        3S          0.37924
   7        3PX        -0.00491   0.22485
   8        3PY         0.00000   0.00000   0.22483
   9        3PZ         0.04925   0.00096   0.00000   0.05605
  10 2   O  1S          0.03576  -0.00026   0.00000  -0.00835   1.04546
  11        2S         -0.08113   0.00030   0.00000   0.01049  -0.10583
  12        2PX         0.00252  -0.07958   0.00000  -0.00087  -0.00047
  13        2PY         0.00000   0.00000  -0.07958   0.00000   0.00000
  14        2PZ        -0.01567   0.00058   0.00000  -0.11745   0.02173
  15        3S         -0.13109   0.00279   0.00000   0.04962  -0.14219
  16        3PX         0.00279  -0.06546   0.00000  -0.00085   0.00040
  17        3PY         0.00000   0.00000  -0.06544   0.00000   0.00000
  18        3PZ        -0.04962   0.00085   0.00000  -0.05601   0.00306
                          11        12        13        14        15
  11        2S          0.30094
  12        2PX         0.00403   0.50027
  13        2PY         0.00000   0.00000   0.50029
  14        2PZ        -0.03765  -0.00097   0.00000   0.26932
  15        3S          0.31503  -0.00431   0.00000  -0.14193   0.37924
  16        3PX         0.00110   0.33486   0.00000   0.00003  -0.00491
  17        3PY         0.00000   0.00000   0.33486   0.00000   0.00000
  18        3PZ        -0.01041  -0.00171   0.00000   0.11738  -0.04925
                          16        17        18
  16        3PX         0.22485
  17        3PY         0.00000   0.22483
  18        3PZ        -0.00096   0.00000   0.05605
     Beta Density Matrix:
                           1         2         3         4         5
   1 1   O  1S          1.04546
   2        2S         -0.10582   0.30089
   3        2PX         0.00044   0.00018   0.20444
   4        2PY         0.00000   0.00000   0.00000   0.20444
   5        2PZ        -0.02172   0.03763  -0.00047   0.00000   0.26931
   6        3S         -0.14219   0.31505  -0.00305   0.00000   0.14193
   7        3PX         0.00104  -0.00160   0.12767   0.00000  -0.00104
   8        3PY         0.00000   0.00000   0.00000   0.12764   0.00000
   9        3PZ        -0.00305   0.01039   0.00042   0.00000   0.11737
  10 2   O  1S         -0.00030   0.00143  -0.00091   0.00000   0.02170
  11        2S          0.00143  -0.00767   0.00352   0.00000  -0.06041
  12        2PX        -0.00091   0.00352   0.20441   0.00000   0.00059
  13        2PY         0.00000   0.00000   0.00000   0.20444   0.00000
  14        2PZ        -0.02170   0.06041  -0.00059   0.00000  -0.23807
  15        3S          0.03576  -0.08115   0.00125   0.00000   0.01567
  16        3PX        -0.00090   0.00300   0.12762   0.00000   0.00043
  17        3PY         0.00000   0.00000   0.00000   0.12764   0.00000
  18        3PZ         0.00835  -0.01051  -0.00042   0.00000  -0.11746
                           6         7         8         9        10
   6        3S          0.37924
   7        3PX        -0.00402   0.07973
   8        3PY         0.00000   0.00000   0.07969
   9        3PZ         0.04925   0.00005   0.00000   0.05605
  10 2   O  1S          0.03576  -0.00090   0.00000  -0.00835   1.04546
  11        2S         -0.08115   0.00300   0.00000   0.01051  -0.10582
  12        2PX         0.00125   0.12762   0.00000   0.00042   0.00044
  13        2PY         0.00000   0.00000   0.12764   0.00000   0.00000
  14        2PZ        -0.01567  -0.00043   0.00000  -0.11746   0.02172
  15        3S         -0.13109   0.00190   0.00000   0.04961  -0.14219
  16        3PX         0.00190   0.07966   0.00000   0.00005   0.00104
  17        3PY         0.00000   0.00000   0.07969   0.00000   0.00000
  18        3PZ        -0.04961  -0.00005   0.00000  -0.05602   0.00305
                          11        12        13        14        15
  11        2S          0.30089
  12        2PX         0.00018   0.20444
  13        2PY         0.00000   0.00000   0.20444
  14        2PZ        -0.03763   0.00047   0.00000   0.26931
  15        3S          0.31505  -0.00305   0.00000  -0.14193   0.37924
  16        3PX        -0.00160   0.12767   0.00000   0.00104  -0.00402
  17        3PY         0.00000   0.00000   0.12764   0.00000   0.00000
  18        3PZ        -0.01039  -0.00042   0.00000   0.11737  -0.04925
                          16        17        18
  16        3PX         0.07973
  17        3PY         0.00000   0.07969
  18        3PZ        -0.00005   0.00000   0.05605
    Full Mulliken population analysis:
                           1         2         3         4         5
   1 1   O  1S          2.09092
   2        2S         -0.04946   0.60182
   3        2PX         0.00000   0.00000   0.70471
   4        2PY         0.00000   0.00000   0.00000   0.70473
   5        2PZ         0.00000   0.00000   0.00000   0.00000   0.53863
   6        3S         -0.04757   0.48115   0.00000   0.00000   0.00000
   7        3PX         0.00000   0.00000   0.23197   0.00000   0.00000
   8        3PY         0.00000   0.00000   0.00000   0.23195   0.00000
   9        3PZ         0.00000   0.00000   0.00000   0.00000   0.11773
  10 2   O  1S          0.00000   0.00001   0.00000   0.00000  -0.00044
  11        2S          0.00001  -0.00128   0.00000   0.00000   0.01616
  12        2PX         0.00000   0.00000   0.00463   0.00000   0.00000
  13        2PY         0.00000   0.00000   0.00000   0.00463   0.00000
  14        2PZ        -0.00044   0.01616   0.00000   0.00000   0.09220
  15        3S          0.00300  -0.04081   0.00000   0.00000  -0.00593
  16        3PX         0.00000   0.00000   0.00761   0.00000   0.00000
  17        3PY         0.00000   0.00000   0.00000   0.00761   0.00000
  18        3PZ         0.00162  -0.00983   0.00000   0.00000   0.04840
                           6         7         8         9        10
   6        3S          0.75848
   7        3PX         0.00000   0.30459
   8        3PY         0.00000   0.00000   0.30452
   9        3PZ         0.00000   0.00000   0.00000   0.11210
  10 2   O  1S          0.00300   0.00000   0.00000   0.00162   2.09092
  11        2S         -0.04081   0.00000   0.00000  -0.00983  -0.04946
  12        2PX         0.00000   0.00761   0.00000   0.00000   0.00000
  13        2PY         0.00000   0.00000   0.00761   0.00000   0.00000
  14        2PZ        -0.00593   0.00000   0.00000   0.04840   0.00000
  15        3S         -0.12835   0.00000   0.00000  -0.05806  -0.04757
  16        3PX         0.00000   0.00696   0.00000   0.00000   0.00000
  17        3PY         0.00000   0.00000   0.00698   0.00000   0.00000
  18        3PZ        -0.05806   0.00000   0.00000   0.02350   0.00000
                          11        12        13        14        15
  11        2S          0.60182
  12        2PX         0.00000   0.70471
  13        2PY         0.00000   0.00000   0.70473
  14        2PZ         0.00000   0.00000   0.00000   0.53863
  15        3S          0.48115   0.00000   0.00000   0.00000   0.75848
  16        3PX         0.00000   0.23197   0.00000   0.00000   0.00000
  17        3PY         0.00000   0.00000   0.23195   0.00000   0.00000
  18        3PZ         0.00000   0.00000   0.00000   0.11773   0.00000
                          16        17        18
  16        3PX         0.30459
  17        3PY         0.00000   0.30452
  18        3PZ         0.00000   0.00000   0.11210
     Gross orbital populations:
                         Total     Alpha     Beta      Spin
   1 1   O  1S          1.99808   0.99904   0.99904   0.00000
   2        2S          0.99777   0.49891   0.49886   0.00005
   3        2PX         0.94892   0.65185   0.29707   0.35478
   4        2PY         0.94893   0.65188   0.29705   0.35482
   5        2PZ         0.80675   0.40338   0.40337   0.00001
   6        3S          0.96190   0.48095   0.48096  -0.00001
   7        3PX         0.55112   0.34814   0.20298   0.14516
   8        3PY         0.55107   0.34812   0.20295   0.14518
   9        3PZ         0.23546   0.11773   0.11772   0.00001
  10 2   O  1S          1.99808   0.99904   0.99904   0.00000
  11        2S          0.99777   0.49891   0.49886   0.00005
  12        2PX         0.94892   0.65185   0.29707   0.35478
  13        2PY         0.94893   0.65188   0.29705   0.35482
  14        2PZ         0.80675   0.40338   0.40337   0.00001
  15        3S          0.96190   0.48095   0.48096  -0.00001
  16        3PX         0.55112   0.34814   0.20298   0.14516
  17        3PY         0.55107   0.34812   0.20295   0.14518
  18        3PZ         0.23546   0.11773   0.11772   0.00001
          Condensed to atoms (all electrons):
               1          2
     1  O    8.052049  -0.052049
     2  O   -0.052049   8.052049
          Atomic-Atomic Spin Densities.
               1          2
     1  O    1.297665  -0.297665
     2  O   -0.297665   1.297665
 Mulliken charges and spin densities:
               1          2
     1  O    0.000000   1.000000
     2  O    0.000000   1.000000
 Sum of Mulliken charges =   0.00000   2.00000
 Mulliken charges and spin densities with hydrogens summed into heavy atoms:
               1          2
     1  O    0.000000   1.000000
     2  O    0.000000   1.000000
 Electronic spatial extent (au):  <R**2>=             44.3603
 Charge=              0.0000 electrons
 Dipole moment (field-independent basis, Debye):
    X=              0.0649    Y=              0.0000    Z=              0.0000  Tot=              0.0649
 Quadrupole moment (field-independent basis, Debye-Ang):
   XX=             -9.9996   YY=             -9.9993   ZZ=            -11.2033
   XY=              0.0000   XZ=              0.0000   YZ=              0.0000
 Traceless Quadrupole moment (field-independent basis, Debye-Ang):
   XX=              0.4012   YY=              0.4014   ZZ=             -0.8026
   XY=              0.0000   XZ=              0.0000   YZ=              0.0000
 Octapole moment (field-independent basis, Debye-Ang**2):
  XXX=              0.0506  YYY=              0.0000  ZZZ=              0.0000  XYY=              0.0169
  XXY=              0.0000  XXZ=              0.0000  XZZ=              0.0459  YZZ=              0.0000
  YYZ=              0.0000  XYZ=              0.0000
 Hexadecapole moment (field-independent basis, Debye-Ang**3):
 XXXX=             -6.6798 YYYY=             -6.6795 ZZZZ=            -29.0619 XXXY=              0.0000
 XXXZ=              0.0000 YYYX=              0.0000 YYYZ=              0.0000 ZZZX=              0.0000
 ZZZY=              0.0000 XXYY=             -2.2266 XXZZ=             -6.1415 YYZZ=             -6.1413
 XXYZ=              0.0000 YYXZ=              0.0000 ZZXY=              0.0000
 N-N= 2.782461435104D+01 E-N=-4.101884313585D+02  KE= 1.494568375975D+02
 Orbital energies and kinetic energies (alpha):
                                 1                 2
   1         O               -20.743429         29.211033
   2         O               -20.742505         29.207371
   3         O                -1.661769          2.888705
   4         O                -1.074360          3.312769
   5         O                -0.710041          2.668414
   6         O                -0.671499          2.202297
   7         O                -0.671251          2.205924
   8         O                -0.155410          3.031819
   9         O                -0.155390          3.031993
  10         V                 0.409638          3.441324
  11         V                 1.054886          3.545770
  12         V                 1.055489          3.543792
  13         V                 1.087115          4.010056
  14         V                 1.125457          3.393705
  15         V                 1.163459          3.126315
  16         V                 1.163615          3.127938
  17         V                 1.243114          3.285296
  18         V                 1.681986          3.537136
 Total kinetic energy from orbitals= 1.555206495410D+02
                          Isotropic Fermi Contact Couplings
        Atom                 a.u.       MegaHertz       Gauss      10(-4) cm-1
     1  O(17)              0.00042      -0.12666      -0.04520      -0.04225
     2  O(17)              0.00042      -0.12666      -0.04520      -0.04225
 --------------------------------------------------------
       Center         ----  Spin Dipole Couplings  ----
                      3XX-RR        3YY-RR        3ZZ-RR
 --------------------------------------------------------
     1   Atom        1.058298      1.058651     -2.116949
     2   Atom        1.058298      1.058651     -2.116949
 --------------------------------------------------------
                        XY            XZ            YZ
 --------------------------------------------------------
     1   Atom        0.000000      0.015571      0.000000
     2   Atom        0.000000     -0.015571      0.000000
 --------------------------------------------------------


 ---------------------------------------------------------------------------------
              Anisotropic Spin Dipole Couplings in Principal Axis System
 ---------------------------------------------------------------------------------

       Atom             a.u.   MegaHertz   Gauss  10(-4) cm-1        Axes

              Baa    -2.1170   153.187    54.661    51.098 -0.0049  0.0000  1.0000
     1 O(17)  Bbb     1.0584   -76.583   -27.327   -25.545  1.0000  0.0000  0.0049
              Bcc     1.0587   -76.603   -27.334   -25.552  0.0000  1.0000  0.0000
 
              Baa    -2.1170   153.187    54.661    51.098  0.0049  0.0000  1.0000
     2 O(17)  Bbb     1.0584   -76.583   -27.327   -25.545  1.0000  0.0000 -0.0049
              Bcc     1.0587   -76.603   -27.334   -25.552  0.0000  1.0000  0.0000
 

 ---------------------------------------------------------------------------------

 No NMR shielding tensors so no spin-rotation constants.
 Leave Link  601 at Tue Sep 29 11:37:12 2015, MaxMem=    33554432 cpu:               0.2 elap:               0.2
 (Enter /home/gauss/gdvi01p/gdv/l9999.exe)
 Unable to Open any file for archive entry.
 1\1\GINC-MEDUSA\SP\ROHF\6-31G\O2(3)\DBWY\29-Sep-2015\0\\#p rohf/6-31G 
 gfinput pop=full nosymm Field=X-100\\O2 6-31G\\0,3\O,0,0.,0.,0.608586\
 O,0,0.,0.,-0.608586\\Version=ES64L-GDVRevI.01+\HF=-149.5273975\RMSD=8.
 150e-09\Dipole=0.0255212,0.,0.\Quadrupole=0.2982755,0.2984405,-0.59671
 61,0.,0.,0.\PG=D*H [C*(O1.O1)]\\@
 The archive entry for this job was punched.


 THEORY:  SUPPOSITION WHICH HAS SCIENTIFIC BASIS,
          BUT NOT EXPERIMENTALLY PROVEN.
 FACT:    A THEORY WHICH HAS BEEN PROVEN BY ENOUGH 
          MONEY TO PAY FOR THE EXPERIMENTS.

                          --  THE WIZARD OF ID
 Job cpu time:       0 days  0 hours  0 minutes  0.7 seconds.
 Elapsed time:       0 days  0 hours  0 minutes  0.6 seconds.
 File lengths (MBytes):  RWF=      5 Int=      0 D2E=      0 Chk=      1 Scr=      1
 Normal termination of Gaussian DV at Tue Sep 29 11:37:12 2015.
