 Entering Gaussian System, Link 0=gdv
 Input=O2_6-31G_CIS.com
 Output=O2_6-31G_CIS.log
 Initial command:
 /home/gauss/gdvi01p/gdv/l1.exe "/home/GauScr/Gau-17087.inp" -scrdir="/home/GauScr/"
 Entering Link 1 = /home/gauss/gdvi01p/gdv/l1.exe PID=     17088.
  
 Copyright (c) 1988,1990,1992,1993,1995,1998,2003,2009,2014,
            Gaussian, Inc.  All Rights Reserved.
  
 This is the private, development version of
 the Gaussian(R) DV system of programs. It is based on
 the Gaussian(R) 09 system (copyright 2009, Gaussian, Inc.),
 the Gaussian(R) 03 system (copyright 2003, Gaussian, Inc.),
 the Gaussian(R) 98 system (copyright 1998, Gaussian, Inc.),
 the Gaussian(R) 94 system (copyright 1995, Gaussian, Inc.),
 the Gaussian 92(TM) system (copyright 1992, Gaussian, Inc.),
 the Gaussian 90(TM) system (copyright 1990, Gaussian, Inc.),
 the Gaussian 88(TM) system (copyright 1988, Gaussian, Inc.),
 the Gaussian 86(TM) system (copyright 1986, Carnegie Mellon
 University), and the Gaussian 82(TM) system (copyright 1983,
 Carnegie Mellon University). Gaussian is a federally registered
 trademark of Gaussian, Inc.
  
 This software contains proprietary and confidential information,
 including trade secrets, belonging to Gaussian, Inc.
  
 This software is provided under written license and may be
 used, copied, transmitted, or stored only in accord with that
 written license.
  
 The following legend is applicable only to US Government
 contracts under FAR:
  
                    RESTRICTED RIGHTS LEGEND
  
 Use, reproduction and disclosure by the US Government is
 subject to restrictions as set forth in subparagraphs (a)
 and (c) of the Commercial Computer Software - Restricted
 Rights clause in FAR 52.227-19.
  
 Gaussian, Inc.
 340 Quinnipiac St., Bldg. 40, Wallingford CT 06492
  
  
 ---------------------------------------------------------------
 Warning -- This program may not be used in any manner that
 competes with the business of Gaussian, Inc. or will provide
 assistance to any competitor of Gaussian, Inc.  The licensee
 of this program is prohibited from giving any competitor of
 Gaussian, Inc. access to this program.  By using this program,
 the user acknowledges that Gaussian, Inc. is engaged in the
 business of creating and licensing software in the field of
 computational chemistry and represents and warrants to the
 licensee that it is not a competitor of Gaussian, Inc. and that
 it will not use this program in any manner prohibited above.
 ---------------------------------------------------------------
  

 Cite this work as:
 Gaussian Development Version, Revision I.01+,
 M. J. Frisch, G. W. Trucks, H. B. Schlegel, G. E. Scuseria, 
 M. A. Robb, J. R. Cheeseman, G. Scalmani, V. Barone, B. Mennucci, 
 G. A. Petersson, H. Nakatsuji, M. Caricato, X. Li, H. P. Hratchian, 
 A. F. Izmaylov, J. Bloino, B. G. Janesko, F. Lipparini, G. Zheng, 
 J. L. Sonnenberg, W. Liang, M. Hada, M. Ehara, K. Toyota, R. Fukuda, 
 J. Hasegawa, M. Ishida, T. Nakajima, Y. Honda, O. Kitao, H. Nakai, 
 T. Vreven, J. A. Montgomery, Jr., J. E. Peralta, F. Ogliaro, 
 M. Bearpark, J. J. Heyd, E. Brothers, K. N. Kudin, V. N. Staroverov, 
 T. Keith, R. Kobayashi, J. Normand, K. Raghavachari, A. Rendell, 
 J. C. Burant, S. S. Iyengar, J. Tomasi, M. Cossi, N. Rega, 
 J. M. Millam, M. Klene, J. E. Knox, J. B. Cross, V. Bakken, 
 C. Adamo, J. Jaramillo, R. Gomperts, R. E. Stratmann, O. Yazyev, 
 A. J. Austin, R. Cammi, C. Pomelli, J. W. Ochterski, R. L. Martin, 
 K. Morokuma, V. G. Zakrzewski, G. A. Voth, P. Salvador, 
 J. J. Dannenberg, S. Dapprich, P. V. Parandekar, N. J. Mayhall, 
 A. D. Daniels, O. Farkas, J. B. Foresman, J. V. Ortiz, 
 J. Cioslowski, and D. J. Fox, Gaussian, Inc., Wallingford CT, 2010.
 
 *******************************************
 Gaussian DV:  ES64L-GDVRevI.01+ 11-Sep-2014
                 22-Sep-2015 
 *******************************************
 ---------------------------------------------------------------
 #p uhf/6-31G gfinput pop=full nosymm cis(full,nstates=12,50-50)
 ---------------------------------------------------------------
 1/38=1,172=1/1;
 2/12=2,15=1,17=6,18=5,40=1/2;
 3/5=1,6=6,11=2,24=10,25=1,30=1,116=2/1,2,8,3;
 4//1;
 5/5=2,38=5/2;
 8/6=1,10=90,108=12/1,4;
 9/41=12,42=3,48=2/14;
 6/7=3/1;
 99/5=1,9=1/99;
 Leave Link    1 at Tue Sep 22 14:55:11 2015, MaxMem=           0 cpu:               0.0 elap:               0.0
 (Enter /home/gauss/gdvi01p/gdv/l101.exe)
 --------
 O2 6-31G
 --------
 Symbolic Z-matrix:
 Charge =  0 Multiplicity = 3
 O                     0.        0.        0.60859 
 O                     0.        0.       -0.60859 
 
 ITRead=  0  0
 MicOpt= -1 -1
 NAtoms=      2 NQM=        2 NQMF=       0 NMMI=      0 NMMIF=      0
                NMic=       0 NMicF=      0.
                    Isotopes and Nuclear Properties:
 (Nuclear quadrupole moments (NQMom) in fm**2, nuclear magnetic moments (NMagM)
  in nuclear magnetons)

  Atom         1           2
 IAtWgt=          16          16
 AtmWgt=  15.9949146  15.9949146
 NucSpn=           0           0
 AtZEff=   0.0000000   0.0000000
 NQMom=    0.0000000   0.0000000
 NMagM=    0.0000000   0.0000000
 AtZNuc=   8.0000000   8.0000000
 Leave Link  101 at Tue Sep 22 14:55:11 2015, MaxMem=    33554432 cpu:               0.1 elap:               0.1
 (Enter /home/gauss/gdvi01p/gdv/l202.exe)
                          Input orientation:                          
 ---------------------------------------------------------------------
 Center     Atomic      Atomic             Coordinates (Angstroms)
 Number     Number       Type             X           Y           Z
 ---------------------------------------------------------------------
      1          8           0        0.000000    0.000000    0.608586
      2          8           0        0.000000    0.000000   -0.608586
 ---------------------------------------------------------------------
 Symmetry turned off by external request.
 Stoichiometry    O2(3)
 Framework group  D*H[C*(O.O)]
 Deg. of freedom     1
 Full point group                 D*H     NOp   8
 Rotational constants (GHZ):      0.0000000     42.6541569     42.6541569
 Leave Link  202 at Tue Sep 22 14:55:11 2015, MaxMem=    33554432 cpu:               0.0 elap:               0.0
 (Enter /home/gauss/gdvi01p/gdv/l301.exe)
 Standard basis: 6-31G (6D, 7F)
 Ernie: Thresh=  0.10000D-02 Tol=  0.10000D-05 Strict=F.
 AO basis set in the form of general basis input (Overlap normalization):
      1 0
 S   6 1.00       0.000000000000
      0.5484671660D+04  0.1831074430D-02
      0.8252349460D+03  0.1395017220D-01
      0.1880469580D+03  0.6844507810D-01
      0.5296450000D+02  0.2327143360D+00
      0.1689757040D+02  0.4701928980D+00
      0.5799635340D+01  0.3585208530D+00
 SP   3 1.00       0.000000000000
      0.1553961625D+02 -0.1107775495D+00  0.7087426823D-01
      0.3599933586D+01 -0.1480262627D+00  0.3397528391D+00
      0.1013761750D+01  0.1130767015D+01  0.7271585773D+00
 SP   1 1.00       0.000000000000
      0.2700058226D+00  0.1000000000D+01  0.1000000000D+01
 ****
      2 0
 S   6 1.00       0.000000000000
      0.5484671660D+04  0.1831074430D-02
      0.8252349460D+03  0.1395017220D-01
      0.1880469580D+03  0.6844507810D-01
      0.5296450000D+02  0.2327143360D+00
      0.1689757040D+02  0.4701928980D+00
      0.5799635340D+01  0.3585208530D+00
 SP   3 1.00       0.000000000000
      0.1553961625D+02 -0.1107775495D+00  0.7087426823D-01
      0.3599933586D+01 -0.1480262627D+00  0.3397528391D+00
      0.1013761750D+01  0.1130767015D+01  0.7271585773D+00
 SP   1 1.00       0.000000000000
      0.2700058226D+00  0.1000000000D+01  0.1000000000D+01
 ****

    18 basis functions,    44 primitive gaussians,    18 cartesian basis functions
     9 alpha electrons        7 beta electrons
       nuclear repulsion energy        27.8246143510 Hartrees.
 IExCor=    0 DFT=F Ex=HF Corr=None ExCW=0 ScaHFX=  1.000000
 ScaDFX=  1.000000  1.000000  1.000000  1.000000 ScalE2=  1.000000  1.000000
 IRadAn=      0 IRanWt=     -1 IRanGd=            0 ICorTp=0 IEmpDi=  4
 NAtoms=    2 NActive=    2 NUniq=    2 SFac= 1.00D+00 NAtFMM=   60 NAOKFM=F Big=F
 Integral buffers will be    131072 words long.
 Raffenetti 2 integral format.
 Two-electron integral symmetry is turned off.
 Leave Link  301 at Tue Sep 22 14:55:11 2015, MaxMem=    33554432 cpu:               0.0 elap:               0.1
 (Enter /home/gauss/gdvi01p/gdv/l302.exe)
 NPDir=0 NMtPBC=     1 NCelOv=     1 NCel=       1 NClECP=     1 NCelD=      1
         NCelK=      1 NCelE2=     1 NClLst=     1 CellRange=     0.0.
 One-electron integrals computed using PRISM.
 One-electron integral symmetry used in STVInt
 NBasis=    18 RedAO= T EigKep=  2.35D-02  NBF=    18
 NBsUse=    18 1.00D-06 EigRej= -1.00D+00 NBFU=    18
 Leave Link  302 at Tue Sep 22 14:55:11 2015, MaxMem=    33554432 cpu:               0.1 elap:               0.1
 (Enter /home/gauss/gdvi01p/gdv/l308.exe)
 Leave Link  308 at Tue Sep 22 14:55:11 2015, MaxMem=    33554432 cpu:               0.0 elap:               0.0
 (Enter /home/gauss/gdvi01p/gdv/l303.exe)
 DipDrv:  MaxL=1.
 Leave Link  303 at Tue Sep 22 14:55:11 2015, MaxMem=    33554432 cpu:               0.0 elap:               0.0
 (Enter /home/gauss/gdvi01p/gdv/l401.exe)
 ExpMin= 2.70D-01 ExpMax= 5.48D+03 ExpMxC= 8.25D+02 IAcc=1 IRadAn=         1 AccDes= 0.00D+00
 Harris functional with IExCor=  205 and IRadAn=       1 diagonalized for initial guess.
 HarFok:  IExCor=  205 AccDes= 0.00D+00 IRadAn=         1 IDoV= 1 UseB2=F ITyADJ=14
 ICtDFT=  3500011 ScaDFX=  1.000000  1.000000  1.000000  1.000000
 FoFCou: FMM=F IPFlag=           0 FMFlag=      100000 FMFlg1=           0
         NFxFlg=           0 DoJE=T BraDBF=F KetDBF=T FulRan=T
         wScrn=  0.000000 ICntrl=       500 IOpCl=  0 I1Cent=   200000004 NGrid=           0
         NMat0=    1 NMatS0=      1 NMatT0=    0 NMatD0=    1 NMtDS0=    0 NMtDT0=    0
 Symmetry not used in FoFCou.
 Harris En= -149.508215910217    
 JPrj=0 DoOrth=F DoCkMO=F.
 Initial guess <Sx>= 0.0000 <Sy>= 0.0000 <Sz>= 1.0000 <S**2>= 2.0000 S= 1.0000
 Leave Link  401 at Tue Sep 22 14:55:11 2015, MaxMem=    33554432 cpu:               0.1 elap:               0.1
 (Enter /home/gauss/gdvi01p/gdv/l502.exe)
 Keep R1 and R2 ints in memory in canonical form, NReq=834600.
 FoFCou: FMM=F IPFlag=           0 FMFlag=           0 FMFlg1=           0
         NFxFlg=           0 DoJE=F BraDBF=F KetDBF=F FulRan=T
         wScrn=  0.000000 ICntrl=       600 IOpCl=  0 I1Cent=           0 NGrid=           0
         NMat0=    1 NMatS0=    171 NMatT0=    0 NMatD0=    1 NMtDS0=    0 NMtDT0=    0
 Symmetry not used in FoFCou.
 Two-electron integral symmetry not used.
 UHF open shell SCF:
 Using DIIS extrapolation, IDIIS=  1040.
 NGot=    33554432 LenX=    33523688 LenY=    33522806
 Requested convergence on RMS density matrix=1.00D-08 within 128 cycles.
 Requested convergence on MAX density matrix=1.00D-06.
 Requested convergence on             energy=1.00D-06.
 No special actions if energy rises.

 Cycle   1  Pass 1  IDiag  1:
 E= -149.517879313440    
 DIIS: error= 6.06D-02 at cycle   1 NSaved=   1.
 NSaved= 1 IEnMin= 1 EnMin= -149.517879313440     IErMin= 1 ErrMin= 6.06D-02
 ErrMax= 6.06D-02  0.00D+00 EMaxC= 1.00D-01 BMatC= 1.74D-01 BMatP= 1.74D-01
 IDIUse=3 WtCom= 3.94D-01 WtEn= 6.06D-01
 Coeff-Com:  0.100D+01
 Coeff-En:   0.100D+01
 Coeff:      0.100D+01
 Gap=     0.946 Goal=   None    Shift=    0.000
 Gap=     0.676 Goal=   None    Shift=    0.000
 GapD=    0.676 DampG=2.000 DampE=0.500 DampFc=1.0000 IDamp=-1.
 RMSDP=7.82D-03 MaxDP=5.15D-02              OVMax= 7.13D-03

 Cycle   2  Pass 1  IDiag  1:
 E= -149.540920672963     Delta-E=       -0.023041359523 Rises=F Damp=F
 DIIS: error= 1.39D-02 at cycle   2 NSaved=   2.
 NSaved= 2 IEnMin= 2 EnMin= -149.540920672963     IErMin= 2 ErrMin= 1.39D-02
 ErrMax= 1.39D-02  0.00D+00 EMaxC= 1.00D-01 BMatC= 8.54D-03 BMatP= 1.74D-01
 IDIUse=3 WtCom= 8.61D-01 WtEn= 1.39D-01
 Coeff-Com: -0.119D+00 0.112D+01
 Coeff-En:   0.000D+00 0.100D+01
 Coeff:     -0.102D+00 0.110D+01
 Gap=     0.952 Goal=   None    Shift=    0.000
 Gap=     0.667 Goal=   None    Shift=    0.000
 RMSDP=2.78D-03 MaxDP=1.35D-02 DE=-2.30D-02 OVMax= 3.80D-03

 Cycle   3  Pass 1  IDiag  1:
 E= -149.544402361654     Delta-E=       -0.003481688691 Rises=F Damp=F
 DIIS: error= 4.70D-03 at cycle   3 NSaved=   3.
 NSaved= 3 IEnMin= 3 EnMin= -149.544402361654     IErMin= 3 ErrMin= 4.70D-03
 ErrMax= 4.70D-03  0.00D+00 EMaxC= 1.00D-01 BMatC= 1.27D-03 BMatP= 8.54D-03
 IDIUse=3 WtCom= 9.53D-01 WtEn= 4.70D-02
 Coeff-Com:  0.330D-01-0.688D+00 0.166D+01
 Coeff-En:   0.000D+00 0.000D+00 0.100D+01
 Coeff:      0.314D-01-0.656D+00 0.162D+01
 Gap=     0.957 Goal=   None    Shift=    0.000
 Gap=     0.666 Goal=   None    Shift=    0.000
 RMSDP=1.64D-03 MaxDP=9.19D-03 DE=-3.48D-03 OVMax= 5.11D-03

 Cycle   4  Pass 1  IDiag  1:
 E= -149.545029060310     Delta-E=       -0.000626698657 Rises=F Damp=F
 DIIS: error= 7.25D-04 at cycle   4 NSaved=   4.
 NSaved= 4 IEnMin= 4 EnMin= -149.545029060310     IErMin= 4 ErrMin= 7.25D-04
 ErrMax= 7.25D-04  0.00D+00 EMaxC= 1.00D-01 BMatC= 1.95D-05 BMatP= 1.27D-03
 IDIUse=3 WtCom= 9.93D-01 WtEn= 7.25D-03
 Coeff-Com: -0.762D-02 0.217D+00-0.612D+00 0.140D+01
 Coeff-En:   0.000D+00 0.000D+00 0.000D+00 0.100D+01
 Coeff:     -0.757D-02 0.216D+00-0.608D+00 0.140D+01
 Gap=     0.958 Goal=   None    Shift=    0.000
 Gap=     0.666 Goal=   None    Shift=    0.000
 RMSDP=2.15D-04 MaxDP=1.68D-03 DE=-6.27D-04 OVMax= 1.62D-03

 Cycle   5  Pass 1  IDiag  1:
 E= -149.545037424890     Delta-E=       -0.000008364579 Rises=F Damp=F
 DIIS: error= 8.29D-05 at cycle   5 NSaved=   5.
 NSaved= 5 IEnMin= 5 EnMin= -149.545037424890     IErMin= 5 ErrMin= 8.29D-05
 ErrMax= 8.29D-05  0.00D+00 EMaxC= 1.00D-01 BMatC= 3.18D-07 BMatP= 1.95D-05
 IDIUse=1 WtCom= 1.00D+00 WtEn= 0.00D+00
 Coeff-Com: -0.215D-02 0.489D-01-0.131D+00 0.212D+00 0.872D+00
 Coeff:     -0.215D-02 0.489D-01-0.131D+00 0.212D+00 0.872D+00
 Gap=     0.958 Goal=   None    Shift=    0.000
 Gap=     0.666 Goal=   None    Shift=    0.000
 RMSDP=1.89D-05 MaxDP=9.96D-05 DE=-8.36D-06 OVMax= 8.52D-05

 Cycle   6  Pass 1  IDiag  1:
 E= -149.545037510215     Delta-E=       -0.000000085325 Rises=F Damp=F
 DIIS: error= 1.65D-05 at cycle   6 NSaved=   6.
 NSaved= 6 IEnMin= 6 EnMin= -149.545037510215     IErMin= 6 ErrMin= 1.65D-05
 ErrMax= 1.65D-05  0.00D+00 EMaxC= 1.00D-01 BMatC= 1.17D-08 BMatP= 3.18D-07
 IDIUse=1 WtCom= 1.00D+00 WtEn= 0.00D+00
 Coeff-Com:  0.841D-03-0.203D-01 0.551D-01-0.106D+00-0.228D+00 0.130D+01
 Coeff:      0.841D-03-0.203D-01 0.551D-01-0.106D+00-0.228D+00 0.130D+01
 Gap=     0.958 Goal=   None    Shift=    0.000
 Gap=     0.666 Goal=   None    Shift=    0.000
 RMSDP=6.30D-06 MaxDP=4.03D-05 DE=-8.53D-08 OVMax= 2.44D-05

 Cycle   7  Pass 1  IDiag  1:
 E= -149.545037514505     Delta-E=       -0.000000004290 Rises=F Damp=F
 DIIS: error= 3.36D-06 at cycle   7 NSaved=   7.
 NSaved= 7 IEnMin= 7 EnMin= -149.545037514505     IErMin= 7 ErrMin= 3.36D-06
 ErrMax= 3.36D-06  0.00D+00 EMaxC= 1.00D-01 BMatC= 3.22D-10 BMatP= 1.17D-08
 IDIUse=1 WtCom= 1.00D+00 WtEn= 0.00D+00
 Coeff-Com: -0.342D-03 0.837D-02-0.228D-01 0.451D-01 0.808D-01-0.573D+00
 Coeff-Com:  0.146D+01
 Coeff:     -0.342D-03 0.837D-02-0.228D-01 0.451D-01 0.808D-01-0.573D+00
 Coeff:      0.146D+01
 Gap=     0.958 Goal=   None    Shift=    0.000
 Gap=     0.666 Goal=   None    Shift=    0.000
 RMSDP=9.58D-07 MaxDP=8.31D-06 DE=-4.29D-09 OVMax= 6.85D-06

 Cycle   8  Pass 1  IDiag  1:
 E= -149.545037514650     Delta-E=       -0.000000000145 Rises=F Damp=F
 DIIS: error= 5.72D-07 at cycle   8 NSaved=   8.
 NSaved= 8 IEnMin= 8 EnMin= -149.545037514650     IErMin= 8 ErrMin= 5.72D-07
 ErrMax= 5.72D-07  0.00D+00 EMaxC= 1.00D-01 BMatC= 9.39D-12 BMatP= 3.22D-10
 IDIUse=1 WtCom= 1.00D+00 WtEn= 0.00D+00
 Coeff-Com:  0.982D-04-0.245D-02 0.670D-02-0.136D-01-0.202D-01 0.162D+00
 Coeff-Com: -0.540D+00 0.141D+01
 Coeff:      0.982D-04-0.245D-02 0.670D-02-0.136D-01-0.202D-01 0.162D+00
 Coeff:     -0.540D+00 0.141D+01
 Gap=     0.958 Goal=   None    Shift=    0.000
 Gap=     0.666 Goal=   None    Shift=    0.000
 RMSDP=1.87D-07 MaxDP=1.61D-06 DE=-1.45D-10 OVMax= 1.37D-06

 Cycle   9  Pass 1  IDiag  1:
 E= -149.545037514654     Delta-E=       -0.000000000004 Rises=F Damp=F
 DIIS: error= 5.14D-08 at cycle   9 NSaved=   9.
 NSaved= 9 IEnMin= 9 EnMin= -149.545037514654     IErMin= 9 ErrMin= 5.14D-08
 ErrMax= 5.14D-08  0.00D+00 EMaxC= 1.00D-01 BMatC= 1.62D-13 BMatP= 9.39D-12
 IDIUse=1 WtCom= 1.00D+00 WtEn= 0.00D+00
 Coeff-Com: -0.901D-05 0.238D-03-0.656D-03 0.140D-02 0.122D-02-0.137D-01
 Coeff-Com:  0.627D-01-0.236D+00 0.118D+01
 Coeff:     -0.901D-05 0.238D-03-0.656D-03 0.140D-02 0.122D-02-0.137D-01
 Coeff:      0.627D-01-0.236D+00 0.118D+01
 Gap=     0.958 Goal=   None    Shift=    0.000
 Gap=     0.666 Goal=   None    Shift=    0.000
 RMSDP=1.81D-08 MaxDP=9.38D-08 DE=-4.29D-12 OVMax= 1.25D-07

 Cycle  10  Pass 1  IDiag  1:
 E= -149.545037514654     Delta-E=        0.000000000000 Rises=F Damp=F
 DIIS: error= 6.23D-09 at cycle  10 NSaved=  10.
 NSaved=10 IEnMin=10 EnMin= -149.545037514654     IErMin=10 ErrMin= 6.23D-09
 ErrMax= 6.23D-09  0.00D+00 EMaxC= 1.00D-01 BMatC= 2.31D-15 BMatP= 1.62D-13
 IDIUse=1 WtCom= 1.00D+00 WtEn= 0.00D+00
 Coeff-Com:  0.442D-06-0.143D-04 0.398D-04-0.984D-04 0.597D-04 0.397D-03
 Coeff-Com: -0.470D-02 0.213D-01-0.219D+00 0.120D+01
 Coeff:      0.442D-06-0.143D-04 0.398D-04-0.984D-04 0.597D-04 0.397D-03
 Coeff:     -0.470D-02 0.213D-01-0.219D+00 0.120D+01
 Gap=     0.958 Goal=   None    Shift=    0.000
 Gap=     0.666 Goal=   None    Shift=    0.000
 RMSDP=2.35D-09 MaxDP=1.49D-08 DE=-1.14D-13 OVMax= 7.36D-09

 SCF Done:  E(UHF) =  -149.545037515     A.U. after   10 cycles
            NFock= 10  Conv=0.24D-08     -V/T= 2.0002
 <Sx>= 0.0000 <Sy>= 0.0000 <Sz>= 1.0000 <S**2>= 2.0339 S= 1.0113
 <L.S>= 0.000000000000E+00
 KE= 1.495118985784D+02 PE=-4.102464042686D+02 EE= 8.336485382449D+01
 Annihilation of the first spin contaminant:
 S**2 before annihilation     2.0339,   after     2.0006
 Leave Link  502 at Tue Sep 22 14:55:11 2015, MaxMem=    33554432 cpu:               0.1 elap:               0.1
 (Enter /home/gauss/gdvi01p/gdv/l801.exe)
 Range of M.O.s used for correlation:     1    18
 NBasis=    18 NAE=     9 NBE=     7 NFC=     0 NFV=     0
 NROrb=     18 NOA=     9 NOB=     7 NVA=     9 NVB=    11
 Leave Link  801 at Tue Sep 22 14:55:11 2015, MaxMem=    33554432 cpu:               0.0 elap:               0.0
 (Enter /home/gauss/gdvi01p/gdv/l804.exe)
 Open-shell transformation, MDV=    33554432 ITran=3 ISComp=1.
 Unit  1 TFree=         21917 TCopy=        122115.
 Semi-Direct transformation.
 ModeAB=           2 MOrb=             9 LenV=      33427987
 LASXX=        11439 LTotXX=       11439 LenRXX=       11439
 LTotAB=       16200 MaxLAS=       27702 LenRXY=       27702
 NonZer=       31590 LenScr=      785920 LnRSAI=           0
 LnScr1=           0 LExtra=           0 Total=       825061
 MaxDsk=          -1 SrtSym=           F ITran=            3
 DoSDTr:  NPSUse=  1
 JobTyp=1 Pass  1:  I=   1 to   9.
 (rs|ai) integrals will be sorted in core.
 Complete sort for first half transformation.
 First half transformation complete.
 Complete sort for second half transformation.
 Second half transformation complete.
 ModeAB=           2 MOrb=             7 LenV=      33427987
 LASXX=         8932 LTotXX=        8932 LenRXX=       21546
 LTotAB=        1260 MaxLAS=       21546 LenRXY=        1260
 NonZer=       24570 LenScr=      785920 LnRSAI=           0
 LnScr1=           0 LExtra=           0 Total=       808726
 MaxDsk=          -1 SrtSym=           F ITran=            3
 DoSDTr:  NPSUse=  1
 JobTyp=2 Pass  1:  I=   1 to   7.
 (rs|ai) integrals will be sorted in core.
 Complete sort for first half transformation.
 First half transformation complete.
 Complete sort for second half transformation.
 Second half transformation complete.
 Spin components of T(2) and E(2):
     alpha-alpha T2 =       0.6746576824D-02 E2=     -0.2453841803D-01
     alpha-beta  T2 =       0.5337575844D-01 E2=     -0.1620737173D+00
     beta-beta   T2 =       0.2711580392D-01 E2=     -0.5563026525D-01
 ANorm=    0.1042707121D+01
 E2 =    -0.2422424006D+00 EUMP2 =    -0.14978727991524D+03
 (S**2,0)=  0.20339D+01           (S**2,1)=  0.20055D+01
 E(PUHF)=      -0.14955382678D+03        E(PMP2)=      -0.14979242552D+03
 Leave Link  804 at Tue Sep 22 14:55:11 2015, MaxMem=    33554432 cpu:               0.1 elap:               0.1
 (Enter /home/gauss/gdvi01p/gdv/l914.exe)
 UHF ground state
 Ignoring spin specification with unrestricted ground state.
 MDV=    33554432 DFT=F DoStab=F Mixed=F DoRPA=F DoScal=F NonHer=F
 Making orbital integer symmetry assigments:
 FoFJK:  IHMeth= 1 ICntrl=       0 DoSepK=F KAlg= 0 I1Cent=           0 FoldK=F
 IRaf=         0 NMat=       2 IRICut=       1 DoRegI=T DoRafI=F ISym2E= 0 IDoP0=0 IntGTp=1.
 FoFCou: FMM=F IPFlag=           0 FMFlag=      100000 FMFlg1=           0
         NFxFlg=           0 DoJE=F BraDBF=F KetDBF=F FulRan=T
         wScrn=  0.000000 ICntrl=         0 IOpCl=  1 I1Cent=           0 NGrid=           0
         NMat0=    2 NMatS0=      2 NMatT0=    0 NMatD0=    2 NMtDS0=    0 NMtDT0=    0
 Symmetry not used in FoFCou.
    48 initial guesses have been made.
 Convergence on wavefunction:    0.001000000000000
 Davidson Disk Diagonalization:  ConvIn= 1.00D-03 SkipCon=T Conv= 1.00D-03.
 Max sub-space:   200 roots to seek:    48 dimension of matrix:          158
 Iteration     1 Dimension    48 NMult     0 NNew     48
 New state      2 was old state      3
 New state      3 was old state      4
 New state      4 was old state      6
 New state      6 was old state      2
 New state      7 was old state      8
 New state      8 was old state      7
 New state     11 was old state     14
 Excitation Energies [eV] at current iteration:
 Root      1 :     4.404427147177203
 Root      2 :     4.404427147177209
 Root      3 :     4.556373595180294
 Root      4 :     7.177263579075826
 Root      5 :     7.177263579075838
 Root      6 :     8.499312264568600
 Root      7 :    11.163125015861840
 Root      8 :    11.163134384084860
 Root      9 :    14.159129018640160
 Root     10 :    14.159129018640210
 Root     11 :    15.477982684278590
 Root     12 :    16.873480421948280
 Root     13 :    16.887284789579710
 Root     14 :    18.738166720219520
 Root     15 :    18.738166720219610
 Root     16 :    23.417236878863200
 Root     17 :    25.898385737701670
 Root     18 :    30.338266419762230
 Root     19 :    30.338266419762250
 Root     20 :    30.598751869628700
 Root     21 :    30.717868478962060
 Root     22 :    31.379291950595180
 Root     23 :    31.379291950595190
 Root     24 :    32.486665820889020
 Root     25 :    32.488016960081820
 Root     26 :    32.981159897223310
 Root     27 :    33.009287361449040
 Root     28 :    33.555099044237880
 Root     29 :    33.555099044237950
 Root     30 :    33.820753356811600
 Root     31 :    33.820753356811600
 Root     32 :    34.187370390381180
 Root     33 :    34.380465456073230
 Root     34 :    34.380465456073250
 Root     35 :    34.585106926268350
 Root     36 :    34.585106926268380
 Root     37 :    34.647591411883580
 Root     38 :    35.424444896673640
 Root     39 :    35.427467060391340
 Root     40 :    36.060783084680440
 Root     41 :    36.060941624016240
 Root     42 :    36.335270954554560
 Root     43 :    36.335270954554690
 Root     44 :    37.029905907204000
 Root     45 :    37.149682384724000
 Root     46 :    37.282195483544860
 Root     47 :    40.649932629331250
 Root     48 :    41.258554955783970
 Iteration     2 Dimension    93 NMult    48 NNew     45
 New state      1 was old state      2
 Root      1 not converged, maximum delta is    0.068937734837358
 New state      2 was old state      1
 Root      2 not converged, maximum delta is    0.068937734837354
 Root      3 not converged, maximum delta is    0.019482484966060
 Root      4 not converged, maximum delta is    0.594684268462256
 Root      5 not converged, maximum delta is    0.594684268462256
 Root      6 not converged, maximum delta is    0.065650903592940
 Root      7 not converged, maximum delta is    0.034025905661367
 Root      8 not converged, maximum delta is    0.033197557891263
 Root      9 not converged, maximum delta is    0.270332426902203
 Root     10 not converged, maximum delta is    0.270332426902203
 Root     11 not converged, maximum delta is    0.065697207210371
 Root     12 not converged, maximum delta is    0.028871133853193
 Excitation Energies [eV] at current iteration:
 Root      1 :     4.363044874921183   Change is   -0.041382272256026
 Root      2 :     4.363044874921201   Change is   -0.041382272256002
 Root      3 :     4.517418417268023   Change is   -0.038955177912271
 Root      4 :     7.066868685051551   Change is   -0.110394894024275
 Root      5 :     7.066868685051557   Change is   -0.110394894024281
 Root      6 :     7.908841260491745   Change is   -0.590471004076855
 Root      7 :    11.078386552805040   Change is   -0.084738463056798
 Root      8 :    11.078631278418940   Change is   -0.084503105665920
 Root      9 :    14.137687514581570   Change is   -0.021441504058591
 Root     10 :    14.137687514581620   Change is   -0.021441504058585
 Root     11 :    15.171693611100870   Change is   -0.306289073177726
 Root     12 :    16.764708090414510   Change is   -0.108772331533768
 Root     13 :    16.765841346702590   Change is   -0.121443442877115
 Root     14 :    18.715525419917900   Change is   -0.022641300301711
 Root     15 :    18.715525419917940   Change is   -0.022641300301578
 Root     16 :    22.111873245476760   Change is   -1.305363633386439
 Root     17 :    25.705844193367350   Change is   -0.192541544334320
 Root     18 :    29.360974526629910   Change is   -0.977291893132343
 Root     19 :    29.360974526629980   Change is   -0.977291893132246
 Root     20 :    29.879666140118860   Change is   -0.838202338843196
 Root     21 :    30.227159182244910   Change is   -2.782128179204123
 Root     22 :    30.321062575451170   Change is   -0.277689294177530
 Root     23 :    30.890383478462490   Change is   -2.090776418760814
 Root     24 :    30.950969538199290   Change is   -0.428322412395899
 Root     25 :    30.950969538199290   Change is   -0.428322412395887
 Root     26 :    30.965276666776460   Change is   -1.521389154112553
 Root     27 :    30.972820666494790   Change is   -1.515196293587024
 Root     28 :    32.031381660743820   Change is   -1.523717383494055
 Root     29 :    32.031381660743850   Change is   -1.523717383494104
 Root     30 :    32.315561777677300   Change is   -1.505191579134303
 Root     31 :    32.315561777677410   Change is   -1.505191579134194
 Root     32 :    32.773777495157840   Change is   -1.873813916725742
 Root     33 :    34.037343404068660   Change is   -0.547763522199719
 Root     34 :    34.037343404068690   Change is   -0.547763522199659
 Root     35 :    34.091975797547680   Change is   -0.288489658525554
 Root     36 :    34.091975797547700   Change is   -0.288489658525542
 Root     37 :    34.187370390381210   Change is    0.000000000000036
 Root     38 :    34.912354019104330   Change is   -0.512090877569307
 Root     39 :    34.937836685215980   Change is   -0.489630375175355
 Root     40 :    35.092528778727310   Change is   -6.166026177056658
 Root     41 :    35.653354945771170   Change is   -0.681916008783391
 Root     42 :    35.653354945771240   Change is   -0.681916008783452
 Root     43 :    35.911396163650200   Change is   -0.149386921030247
 Root     44 :    35.924780384524940   Change is   -0.136161239491289
 Root     45 :    36.502996926867400   Change is   -0.526908980336597
 Root     46 :    36.535087713743930   Change is   -0.614594670980070
 Root     47 :    36.955175615104480   Change is   -0.327019868440383
 Root     48 :    37.104135594176150   Change is   -3.545797035155101
 Iteration     3 Dimension   102 NMult    93 NNew      9
 New state      1 was old state      2
 Root      1 not converged, maximum delta is    0.491547115453313
 New state      2 was old state      1
 Root      2 not converged, maximum delta is    0.491547115453437
 Root      3 has converged.
 Root      4 not converged, maximum delta is    0.604506102535948
 Root      5 not converged, maximum delta is    0.604506102535948
 Root      6 not converged, maximum delta is    0.003993747462474
 Root      7 has converged.
 Root      8 not converged, maximum delta is    0.001554551914464
 Root      9 not converged, maximum delta is    0.199717854804583
 Root     10 not converged, maximum delta is    0.199717854804582
 Root     11 not converged, maximum delta is    0.008478849138507
 Root     12 has converged.
 Excitation Energies [eV] at current iteration:
 Root      1 :     4.363044874921164   Change is   -0.000000000000036
 Root      2 :     4.363044874921213   Change is    0.000000000000030
 Root      3 :     4.517418417268048   Change is    0.000000000000024
 Root      4 :     7.066663126389033   Change is   -0.000205558662519
 Root      5 :     7.066663126389098   Change is   -0.000205558662459
 Root      6 :     7.906704306589031   Change is   -0.002136953902714
 Root      7 :    11.078313705129290   Change is   -0.000072847675754
 Root      8 :    11.078315143819780   Change is   -0.000316134599161
 Root      9 :    14.137625642970090   Change is   -0.000061871611481
 Root     10 :    14.137625642970150   Change is   -0.000061871611469
 Root     11 :    15.162278738745960   Change is   -0.009414872354902
 Root     12 :    16.764633022455700   Change is   -0.000075067958809
 Iteration     4 Dimension   109 NMult   102 NNew      7
 New state      1 was old state      2
 Root      1 not converged, maximum delta is    0.383328514397055
 New state      2 was old state      1
 Root      2 not converged, maximum delta is    0.383328514397000
 Root      3 has converged.
 Root      4 not converged, maximum delta is    0.160649927608590
 Root      5 not converged, maximum delta is    0.160649927608590
 Root      6 has converged.
 New state      7 was old state      8
 Root      7 has converged.
 New state      8 was old state      7
 Root      8 has converged.
 New state      9 was old state     10
 Root      9 not converged, maximum delta is    0.149226614604839
 New state     10 was old state      9
 Root     10 not converged, maximum delta is    0.149226614604839
 Root     11 has converged.
 Root     12 has converged.
 Excitation Energies [eV] at current iteration:
 Root      1 :     4.363044874921177   Change is   -0.000000000000036
 Root      2 :     4.363044874921195   Change is    0.000000000000030
 Root      3 :     4.517418417268023   Change is   -0.000000000000024
 Root      4 :     7.066662555596293   Change is   -0.000000570792739
 Root      5 :     7.066662555596312   Change is   -0.000000570792787
 Root      6 :     7.906690188160347   Change is   -0.000014118428684
 Root      7 :    11.078313694390190   Change is   -0.000001449429595
 Root      8 :    11.078313705129300   Change is    0.000000000000006
 Root      9 :    14.137624300924060   Change is   -0.000001342046093
 Root     10 :    14.137624300924110   Change is   -0.000001342045978
 Root     11 :    15.162230570152560   Change is   -0.000048168593409
 Root     12 :    16.764633022455670   Change is   -0.000000000000036
 Iteration     5 Dimension   111 NMult   109 NNew      2
 New state      1 was old state      2
 Root      1 not converged, maximum delta is    0.198216930714677
 New state      2 was old state      1
 Root      2 not converged, maximum delta is    0.198216930714723
 Root      3 has converged.
 New state      4 was old state      5
 Root      4 not converged, maximum delta is    0.258100040035961
 New state      5 was old state      4
 Root      5 not converged, maximum delta is    0.258100040035961
 Root      6 has converged.
 Root      7 has converged.
 Root      8 has converged.
 New state      9 was old state     10
 Root      9 has converged.
 New state     10 was old state      9
 Root     10 has converged.
 Root     11 has converged.
 Root     12 has converged.
 Excitation Energies [eV] at current iteration:
 Root      1 :     4.363044874921189   Change is   -0.000000000000006
 Root      2 :     4.363044874921201   Change is    0.000000000000024
 Root      3 :     4.517418417268023   Change is    0.000000000000000
 Root      4 :     7.066662555110723   Change is   -0.000000000485589
 Root      5 :     7.066662555110772   Change is   -0.000000000485522
 Root      6 :     7.906690188160329   Change is   -0.000000000000018
 Root      7 :    11.078313694390190   Change is    0.000000000000006
 Root      8 :    11.078313705129250   Change is   -0.000000000000048
 Root      9 :    14.137624298253070   Change is   -0.000000002671043
 Root     10 :    14.137624298253310   Change is   -0.000000002670747
 Root     11 :    15.162230570152580   Change is    0.000000000000018
 Root     12 :    16.764633022455710   Change is    0.000000000000048
 Convergence achieved on expansion vectors.
 ***********************************************************************
 Excited states from <AA,BB:AA,BB> singles matrix:
 ***********************************************************************
 
 ExtSpn:  IState=     1 X2= 1.000 Y2= 0.000 X2-Y2-1= 1.78D-15
          S2Grnd=  2.034 Ra=  0.000 Rb= -0.009 T= -0.001 S2Ext= -0.010 S2=  2.024
 ExtSpn:  IState=     2 X2= 1.000 Y2= 0.000 X2-Y2-1= 6.66D-16
          S2Grnd=  2.034 Ra=  0.000 Rb= -0.009 T= -0.001 S2Ext= -0.010 S2=  2.024
 ExtSpn:  IState=     3 X2= 1.000 Y2= 0.000 X2-Y2-1= 4.44D-16
          S2Grnd=  2.034 Ra=  0.000 Rb= -0.009 T=  0.000 S2Ext= -0.009 S2=  2.024
 ExtSpn:  IState=     4 X2= 1.000 Y2= 0.000 X2-Y2-1=-1.78D-15
          S2Grnd=  2.034 Ra=  0.000 Rb=  0.004 T=  0.001 S2Ext=  0.006 S2=  2.039
 ExtSpn:  IState=     5 X2= 1.000 Y2= 0.000 X2-Y2-1=-3.33D-16
          S2Grnd=  2.034 Ra=  0.000 Rb=  0.004 T=  0.001 S2Ext=  0.006 S2=  2.039
 ExtSpn:  IState=     6 X2= 1.000 Y2= 0.000 X2-Y2-1=-7.77D-16
          S2Grnd=  2.034 Ra=  0.108 Rb=  0.033 T= -0.133 S2Ext=  0.008 S2=  2.042
 ExtSpn:  IState=     7 X2= 1.000 Y2= 0.000 X2-Y2-1= 2.89D-15
          S2Grnd=  2.034 Ra= -0.003 Rb=  0.000 T=  0.000 S2Ext= -0.002 S2=  2.032
 ExtSpn:  IState=     8 X2= 1.000 Y2= 0.000 X2-Y2-1= 0.00D+00
          S2Grnd=  2.034 Ra= -0.003 Rb=  0.000 T=  0.000 S2Ext= -0.002 S2=  2.032
 ExtSpn:  IState=     9 X2= 1.000 Y2= 0.000 X2-Y2-1= 4.44D-16
          S2Grnd=  2.034 Ra=  0.030 Rb=  0.950 T=  0.336 S2Ext=  1.316 S2=  3.349
 ExtSpn:  IState=    10 X2= 1.000 Y2= 0.000 X2-Y2-1= 4.44D-16
          S2Grnd=  2.034 Ra=  0.030 Rb=  0.950 T=  0.336 S2Ext=  1.316 S2=  3.349
 ExtSpn:  IState=    11 X2= 1.000 Y2= 0.000 X2-Y2-1=-1.11D-15
          S2Grnd=  2.034 Ra=  0.468 Rb=  0.519 T=  0.988 S2Ext=  1.976 S2=  4.009
 ExtSpn:  IState=    12 X2= 1.000 Y2= 0.000 X2-Y2-1= 1.11D-15
          S2Grnd=  2.034 Ra=  0.001 Rb=  0.008 T=  0.002 S2Ext=  0.011 S2=  2.045
 1PDM for each excited state written to RWF  633
 Ground to excited state transition densities written to RWF  633
 Ground to excited state transition electric dipole moments (Au):
       state          X           Y           Z        Dip. S.      Osc.
         1         0.0000      0.0000      0.0000      0.0000      0.0000
         2         0.0000      0.0000      0.0000      0.0000      0.0000
         3         0.0000      0.0000      0.0000      0.0000      0.0000
         4         0.0000      0.0000      0.0000      0.0000      0.0000
         5         0.0000      0.0000      0.0000      0.0000      0.0000
         6         0.0000      0.0000      0.9890      0.9782      0.1895
         7         0.0166     -0.0141      0.0000      0.0005      0.0001
         8        -0.0141     -0.0166      0.0000      0.0005      0.0001
         9         0.0000      0.0000      0.0000      0.0000      0.0000
        10         0.0000      0.0000      0.0000      0.0000      0.0000
        11         0.0000      0.0000     -0.1567      0.0245      0.0091
        12        -0.4100     -0.4819      0.0000      0.4003      0.1644
 Ground to excited state transition velocity dipole moments (Au):
       state          X           Y           Z        Dip. S.      Osc.
         1         0.0000      0.0000      0.0000      0.0000      0.0000
         2         0.0000      0.0000      0.0000      0.0000      0.0000
         3         0.0000      0.0000      0.0000      0.0000      0.0000
         4         0.0000      0.0000      0.0000      0.0000      0.0000
         5         0.0000      0.0000      0.0000      0.0000      0.0000
         6         0.0000      0.0000     -0.0051      0.0000      0.0001
         7         0.0173     -0.0147      0.0000      0.0005      0.0008
         8        -0.0147     -0.0173      0.0000      0.0005      0.0008
         9         0.0000      0.0000      0.0000      0.0000      0.0000
        10         0.0000      0.0000      0.0000      0.0000      0.0000
        11         0.0000      0.0000     -0.0092      0.0001      0.0001
        12         0.2109      0.2479      0.0000      0.1059      0.1146
 Ground to excited state transition magnetic dipole moments (Au):
       state          X           Y           Z
         1         0.0000      0.0000      0.0000
         2         0.0000      0.0000      0.0000
         3         0.0000      0.0000      0.0000
         4        -0.6797     -0.9477      0.0000
         5        -0.9477      0.6797      0.0000
         6         0.0000      0.0000      0.0000
         7         0.0000      0.0000      0.0000
         8         0.0000      0.0000      0.0000
         9        -0.3750      0.2689      0.0000
        10         0.2689      0.3750      0.0000
        11         0.0000      0.0000      0.0000
        12         0.0000      0.0000      0.0000
 Ground to excited state transition velocity quadrupole moments (Au):
       state          XX          YY          ZZ          XY          XZ          YZ
         1         0.0000      0.0000      0.0000      0.0000      0.0000      0.0000
         2         0.0000      0.0000      0.0000      0.0000      0.0000      0.0000
         3         0.0000      0.0000      0.0000      0.0000      0.0000      0.0000
         4         0.0000      0.0000      0.0000      0.0000     -0.1467      0.1052
         5         0.0000      0.0000      0.0000      0.0000      0.1052      0.1467
         6         0.0000      0.0000      0.0000      0.0000      0.0000      0.0000
         7         0.0000      0.0000      0.0000      0.0000      0.0000      0.0000
         8         0.0000      0.0000      0.0000      0.0000      0.0000      0.0000
         9         0.0000      0.0000      0.0000      0.0000      0.0126      0.0175
        10         0.0000      0.0000      0.0000      0.0000      0.0175     -0.0126
        11         0.0000      0.0000      0.0000      0.0000      0.0000      0.0000
        12         0.0000      0.0000      0.0000      0.0000      0.0000      0.0000
 <0|del|b> * <b|rxdel|0> + <0|del|b> * <b|delr+rdel|0>
 Rotatory Strengths (R) in cgs (10**-40 erg-esu-cm/Gauss)
       state          XX          YY          ZZ    R(velocity)    E-M Angle
         1         0.0000      0.0000      0.0000      0.0000       90.00
         2         0.0000      0.0000      0.0000      0.0000       90.00
         3         0.0000      0.0000      0.0000      0.0000       90.00
         4         0.0000      0.0000      0.0000      0.0000       90.00
         5         0.0000      0.0000      0.0000      0.0000       90.00
         6         0.0000      0.0000      0.0000      0.0000       90.00
         7         0.0000      0.0000      0.0000      0.0000       90.00
         8         0.0000      0.0000      0.0000      0.0000       90.00
         9         0.0000      0.0000      0.0000      0.0000       90.00
        10         0.0000      0.0000      0.0000      0.0000       90.00
        11         0.0000      0.0000      0.0000      0.0000       90.00
        12         0.0000      0.0000      0.0000      0.0000       90.00
 1/2[<0|r|b>*<b|rxdel|0> + (<0|rxdel|b>*<b|r|0>)*]
 Rotatory Strengths (R) in cgs (10**-40 erg-esu-cm/Gauss)
       state          XX          YY          ZZ     R(length)
         1         0.0000      0.0000      0.0000      0.0000
         2         0.0000      0.0000      0.0000      0.0000
         3         0.0000      0.0000      0.0000      0.0000
         4         0.0000      0.0000      0.0000      0.0000
         5         0.0000      0.0000      0.0000      0.0000
         6         0.0000      0.0000      0.0000      0.0000
         7         0.0000      0.0000      0.0000      0.0000
         8         0.0000      0.0000      0.0000      0.0000
         9         0.0000      0.0000      0.0000      0.0000
        10         0.0000      0.0000      0.0000      0.0000
        11         0.0000      0.0000      0.0000      0.0000
        12         0.0000      0.0000      0.0000      0.0000
  1/2[<0|del|b>*<b|r|0> + (<0|r|b>*<b|del|0>)*] (Au)
       state          X           Y           Z        Dip. S.   Osc.(frdel)
         1         0.0000      0.0000      0.0000      0.0000      0.0000
         2         0.0000      0.0000      0.0000      0.0000      0.0000
         3         0.0000      0.0000      0.0000      0.0000      0.0000
         4         0.0000      0.0000      0.0000      0.0000      0.0000
         5         0.0000      0.0000      0.0000      0.0000      0.0000
         6         0.0000      0.0000     -0.0051      0.0051      0.0034
         7         0.0003      0.0002      0.0000     -0.0005     -0.0003
         8         0.0002      0.0003      0.0000     -0.0005     -0.0003
         9         0.0000      0.0000      0.0000      0.0000      0.0000
        10         0.0000      0.0000      0.0000      0.0000      0.0000
        11         0.0000      0.0000      0.0014     -0.0014     -0.0010
        12        -0.0865     -0.1195      0.0000      0.2059      0.1373

 Excitation energies and oscillator strengths:
 
 Excited state symmetry could not be determined.
 Excited State   1:  3.016-?Sym    4.3630 eV  284.17 nm  f=0.0000  <S**2>=2.024
      6B ->  8B       -0.67710
      6B ->  9B       -0.19346
      7B ->  8B       -0.19346
      7B ->  9B        0.67710
 This state for optimization and/or second-order correction.
 Total Energy, E(CIS) =  -149.384698566    
 Copying the excited state density for this state as the 1-particle RhoCI density.
 
 Excited state symmetry could not be determined.
 Excited State   2:  3.016-?Sym    4.3630 eV  284.17 nm  f=0.0000  <S**2>=2.024
      6B ->  8B       -0.19346
      6B ->  9B        0.67710
      7B ->  8B        0.67710
      7B ->  9B        0.19346
 
 LASSW sees vector with all elements less than  0.100000000000E-03
 LASSW sees vector with all elements less than  0.100000000000E-03
 Excited state symmetry could not be determined.
 Excited State   3:  3.016-?Sym    4.5174 eV  274.46 nm  f=0.0000  <S**2>=2.024
      6B ->  8B        0.69318
      6B ->  9B        0.12467
      7B ->  8B       -0.12467
      7B ->  9B        0.69318
 
 Excited state symmetry could not be determined.
 Excited State   4:  3.026-?Sym    7.0667 eV  175.45 nm  f=0.0000  <S**2>=2.039
      5B ->  8B       -0.25563
      5B ->  9B        0.95820
 
 Excited state symmetry could not be determined.
 Excited State   5:  3.026-?Sym    7.0667 eV  175.45 nm  f=0.0000  <S**2>=2.039
      5B ->  8B        0.95820
      5B ->  9B        0.25563
 
 Excited state symmetry could not be determined.
 Excited State   6:  3.028-?Sym    7.9067 eV  156.81 nm  f=0.1895  <S**2>=2.042
      7A -> 10A       -0.29915
      5B -> 10B       -0.18315
      6B ->  8B       -0.11452
      6B ->  9B        0.63674
      7B ->  8B       -0.63674
      7B ->  9B       -0.11452
 
 Excited state symmetry could not be determined.
 Excited State   7:  3.021-?Sym   11.0783 eV  111.92 nm  f=0.0001  <S**2>=2.032
      8A -> 10A       -0.48971
      9A -> 10A        0.84332
      9A -> 13A        0.15251
      4B ->  9B       -0.11266
 
 Excited state symmetry could not be determined.
 Excited State   8:  3.021-?Sym   11.0783 eV  111.92 nm  f=0.0001  <S**2>=2.032
      8A -> 10A        0.84332
      8A -> 13A        0.15251
      9A -> 10A        0.48971
      4B ->  8B       -0.11266
 
 Excited state symmetry could not be determined.
 Excited State   9:  3.794-?Sym   14.1376 eV   87.70 nm  f=0.0000  <S**2>=3.349
      5A -> 10A       -0.11864
      6A -> 10A       -0.12068
      7B -> 10B        0.96476
      7B -> 11B        0.16853
 
 Excited state symmetry could not be determined.
 Excited State  10:  3.794-?Sym   14.1376 eV   87.70 nm  f=0.0000  <S**2>=3.349
      5A -> 10A        0.12068
      6A -> 10A       -0.11864
      6B -> 10B        0.96476
      6B -> 11B        0.16853
 
 Excited state symmetry could not be determined.
 Excited State  11:  4.128-?Sym   15.1622 eV   81.77 nm  f=0.0091  <S**2>=4.009
      7A -> 10A       -0.67298
      7A -> 13A       -0.11796
      5B -> 10B        0.70150
      5B -> 11B        0.14755
 
 Excited state symmetry could not be determined.
 Excited State  12:  3.030-?Sym   16.7646 eV   73.96 nm  f=0.1644  <S**2>=2.045
      4B ->  8B        0.96690
      4B ->  9B        0.17390
 SavETr:  write IOETrn=   770 NScale= 10 NData=  16 NLR=1 NState=   12 LETran=     226.
 Leave Link  914 at Tue Sep 22 14:55:11 2015, MaxMem=    33554432 cpu:               0.1 elap:               0.1
 (Enter /home/gauss/gdvi01p/gdv/l601.exe)
 Copying SCF densities to generalized density rwf, IOpCl= 1 IROHF=0.

 **********************************************************************

            Population analysis using the SCF density.

 **********************************************************************

 Alpha  occ. eigenvalues --  -20.77410 -20.77363  -1.75215  -1.20901  -0.85266
 Alpha  occ. eigenvalues --   -0.85266  -0.75076  -0.57528  -0.57528
 Alpha virt. eigenvalues --    0.38233   1.01478   1.01478   1.07679   1.11198
 Alpha virt. eigenvalues --    1.12782   1.12782   1.23959   1.66650
  Beta  occ. eigenvalues --  -20.71875 -20.71766  -1.60762  -1.00042  -0.68865
  Beta  occ. eigenvalues --   -0.57808  -0.57808
  Beta virt. eigenvalues --    0.08836   0.08836   0.46294   1.10948   1.14063
  Beta virt. eigenvalues --    1.14063   1.15018   1.25038   1.25038   1.25686
  Beta virt. eigenvalues --    1.71409
     Alpha Molecular Orbital Coefficients:
                           1         2         3         4         5
                           O         O         O         O         O
     Eigenvalues --   -20.77410 -20.77363  -1.75215  -1.20901  -0.85266
   1 1   O  1S          0.70395   0.70391  -0.15699  -0.16854   0.00000
   2        2S          0.01572   0.01665   0.38431   0.40813   0.00000
   3        2PX         0.00000   0.00000   0.00000   0.00000  -0.08353
   4        2PY         0.00000   0.00000   0.00000   0.00000   0.48146
   5        2PZ        -0.00131  -0.00174  -0.16285   0.11132   0.00000
   6        3S         -0.00301  -0.00858   0.23485   0.52988   0.00000
   7        3PX         0.00000   0.00000   0.00000   0.00000  -0.04238
   8        3PY         0.00000   0.00000   0.00000   0.00000   0.24425
   9        3PZ         0.00082   0.00361  -0.03609  -0.03581   0.00000
  10 2   O  1S          0.70395  -0.70391  -0.15699   0.16854   0.00000
  11        2S          0.01572  -0.01665   0.38431  -0.40813   0.00000
  12        2PX         0.00000   0.00000   0.00000   0.00000  -0.08353
  13        2PY         0.00000   0.00000   0.00000   0.00000   0.48146
  14        2PZ         0.00131  -0.00174   0.16285   0.11132   0.00000
  15        3S         -0.00301   0.00858   0.23485  -0.52988   0.00000
  16        3PX         0.00000   0.00000   0.00000   0.00000  -0.04238
  17        3PY         0.00000   0.00000   0.00000   0.00000   0.24425
  18        3PZ        -0.00082   0.00361   0.03609  -0.03581   0.00000
                           6         7         8         9        10
                           O         O         O         O         V
     Eigenvalues --    -0.85266  -0.75076  -0.57528  -0.57528   0.38233
   1 1   O  1S          0.00000  -0.05207   0.00000   0.00000  -0.08652
   2        2S          0.00000   0.11053   0.00000   0.00000   0.21812
   3        2PX         0.48146   0.00000   0.52072  -0.18407   0.00000
   4        2PY         0.08353   0.00000   0.18407   0.52072   0.00000
   5        2PZ         0.00000   0.48138   0.00000   0.00000  -0.47263
   6        3S          0.00000   0.24127   0.00000   0.00000   1.18681
   7        3PX         0.24425   0.00000   0.34557  -0.12215   0.00000
   8        3PY         0.04238   0.00000   0.12215   0.34557   0.00000
   9        3PZ         0.00000   0.22774   0.00000   0.00000  -1.15896
  10 2   O  1S          0.00000  -0.05207   0.00000   0.00000   0.08652
  11        2S          0.00000   0.11053   0.00000   0.00000  -0.21812
  12        2PX         0.48146   0.00000  -0.52072   0.18407   0.00000
  13        2PY         0.08353   0.00000  -0.18407  -0.52072   0.00000
  14        2PZ         0.00000  -0.48138   0.00000   0.00000  -0.47263
  15        3S          0.00000   0.24127   0.00000   0.00000  -1.18681
  16        3PX         0.24425   0.00000  -0.34557   0.12215   0.00000
  17        3PY         0.04238   0.00000  -0.12215  -0.34557   0.00000
  18        3PZ         0.00000  -0.22774   0.00000   0.00000  -1.15896
                          11        12        13        14        15
                           V         V         V         V         V
     Eigenvalues --     1.01478   1.01478   1.07679   1.11198   1.12782
   1 1   O  1S          0.00000   0.00000   0.02130   0.05989   0.00000
   2        2S          0.00000   0.00000  -0.15033  -0.68553   0.00000
   3        2PX        -0.21609   0.61841   0.00000   0.00000  -0.61429
   4        2PY         0.61841   0.21609   0.00000   0.00000   0.06373
   5        2PZ         0.00000   0.00000  -0.69950  -0.45654   0.00000
   6        3S          0.00000   0.00000  -0.86052   0.76278   0.00000
   7        3PX         0.21001  -0.60101   0.00000   0.00000   1.06913
   8        3PY        -0.60101  -0.21001   0.00000   0.00000  -0.11091
   9        3PZ         0.00000   0.00000   1.32469   0.59003   0.00000
  10 2   O  1S          0.00000   0.00000  -0.02130   0.05989   0.00000
  11        2S          0.00000   0.00000   0.15033  -0.68553   0.00000
  12        2PX        -0.21609   0.61841   0.00000   0.00000   0.61429
  13        2PY         0.61841   0.21609   0.00000   0.00000  -0.06373
  14        2PZ         0.00000   0.00000  -0.69950   0.45654   0.00000
  15        3S          0.00000   0.00000   0.86052   0.76278   0.00000
  16        3PX         0.21001  -0.60101   0.00000   0.00000  -1.06913
  17        3PY        -0.60101  -0.21001   0.00000   0.00000   0.11091
  18        3PZ         0.00000   0.00000   1.32469  -0.59003   0.00000
                          16        17        18
                           V         V         V
     Eigenvalues --     1.12782   1.23959   1.66650
   1 1   O  1S          0.00000  -0.03696   0.02364
   2        2S          0.00000   0.83758  -1.24313
   3        2PX        -0.06373   0.00000   0.00000
   4        2PY        -0.61429   0.00000   0.00000
   5        2PZ         0.00000  -0.44125   0.08453
   6        3S          0.00000  -0.52404   3.51677
   7        3PX         0.11091   0.00000   0.00000
   8        3PY         1.06913   0.00000   0.00000
   9        3PZ         0.00000   0.63078  -1.79772
  10 2   O  1S          0.00000  -0.03696  -0.02364
  11        2S          0.00000   0.83758   1.24313
  12        2PX         0.06373   0.00000   0.00000
  13        2PY         0.61429   0.00000   0.00000
  14        2PZ         0.00000   0.44125   0.08453
  15        3S          0.00000  -0.52404  -3.51677
  16        3PX        -0.11091   0.00000   0.00000
  17        3PY        -1.06913   0.00000   0.00000
  18        3PZ         0.00000  -0.63078  -1.79772
     Beta Molecular Orbital Coefficients:
                           1         2         3         4         5
                           O         O         O         O         O
     Eigenvalues --   -20.71875 -20.71766  -1.60762  -1.00042  -0.68865
   1 1   O  1S          0.70442   0.70446  -0.15075  -0.15941  -0.05723
   2        2S          0.01345   0.01426   0.34658   0.37476   0.10962
   3        2PX         0.00000   0.00000   0.00000   0.00000   0.00000
   4        2PY         0.00000   0.00000   0.00000   0.00000   0.00000
   5        2PZ        -0.00143  -0.00160  -0.18536   0.13996   0.46259
   6        3S         -0.00256  -0.00850   0.24962   0.47293   0.27220
   7        3PX         0.00000   0.00000   0.00000   0.00000   0.00000
   8        3PY         0.00000   0.00000   0.00000   0.00000   0.00000
   9        3PZ         0.00079   0.00380  -0.04856   0.04246   0.23901
  10 2   O  1S          0.70442  -0.70446  -0.15075   0.15941  -0.05723
  11        2S          0.01345  -0.01426   0.34658  -0.37476   0.10962
  12        2PX         0.00000   0.00000   0.00000   0.00000   0.00000
  13        2PY         0.00000   0.00000   0.00000   0.00000   0.00000
  14        2PZ         0.00143  -0.00160   0.18536   0.13996  -0.46259
  15        3S         -0.00256   0.00850   0.24962  -0.47293   0.27220
  16        3PX         0.00000   0.00000   0.00000   0.00000   0.00000
  17        3PY         0.00000   0.00000   0.00000   0.00000   0.00000
  18        3PZ        -0.00079   0.00380   0.04856   0.04246  -0.23901
                           6         7         8         9        10
                           O         O         V         V         V
     Eigenvalues --    -0.57808  -0.57808   0.08836   0.08836   0.46294
   1 1   O  1S          0.00000   0.00000   0.00000   0.00000  -0.09804
   2        2S          0.00000   0.00000   0.00000   0.00000   0.22505
   3        2PX         0.31207   0.26548   0.34994  -0.28761   0.00000
   4        2PY        -0.26548   0.31207   0.28761   0.34994   0.00000
   5        2PZ         0.00000   0.00000   0.00000   0.00000  -0.43472
   6        3S          0.00000   0.00000   0.00000   0.00000   1.33324
   7        3PX         0.24356   0.20720   0.40501  -0.33287   0.00000
   8        3PY        -0.20720   0.24356   0.33287   0.40501   0.00000
   9        3PZ         0.00000   0.00000   0.00000   0.00000  -1.24722
  10 2   O  1S          0.00000   0.00000   0.00000   0.00000   0.09804
  11        2S          0.00000   0.00000   0.00000   0.00000  -0.22505
  12        2PX         0.31207   0.26548  -0.34994   0.28761   0.00000
  13        2PY        -0.26548   0.31207  -0.28761  -0.34994   0.00000
  14        2PZ         0.00000   0.00000   0.00000   0.00000  -0.43472
  15        3S          0.00000   0.00000   0.00000   0.00000  -1.33324
  16        3PX         0.24356   0.20720  -0.40501   0.33287   0.00000
  17        3PY        -0.20720   0.24356  -0.33287  -0.40501   0.00000
  18        3PZ         0.00000   0.00000   0.00000   0.00000  -1.24722
                          11        12        13        14        15
                           V         V         V         V         V
     Eigenvalues --     1.10948   1.14063   1.14063   1.15018   1.25038
   1 1   O  1S          0.01882   0.00000   0.00000   0.05679   0.00000
   2        2S         -0.13284   0.00000   0.00000  -0.55646   0.00000
   3        2PX         0.00000   0.69665   0.12131   0.00000  -0.67325
   4        2PY         0.00000  -0.12131   0.69665   0.00000  -0.16732
   5        2PZ        -0.71853   0.00000   0.00000  -0.52765   0.00000
   6        3S         -0.85242   0.00000   0.00000   0.66210   0.00000
   7        3PX         0.00000  -0.59480  -0.10357   0.00000   0.97766
   8        3PY         0.00000   0.10357  -0.59480   0.00000   0.24297
   9        3PZ         1.29717   0.00000   0.00000   0.67577   0.00000
  10 2   O  1S         -0.01882   0.00000   0.00000   0.05679   0.00000
  11        2S          0.13284   0.00000   0.00000  -0.55646   0.00000
  12        2PX         0.00000   0.69665   0.12131   0.00000   0.67325
  13        2PY         0.00000  -0.12131   0.69665   0.00000   0.16732
  14        2PZ        -0.71853   0.00000   0.00000   0.52765   0.00000
  15        3S          0.85242   0.00000   0.00000   0.66210   0.00000
  16        3PX         0.00000  -0.59480  -0.10357   0.00000  -0.97766
  17        3PY         0.00000   0.10357  -0.59480   0.00000  -0.24297
  18        3PZ         1.29717   0.00000   0.00000  -0.67577   0.00000
                          16        17        18
                           V         V         V
     Eigenvalues --     1.25038   1.25686   1.71409
   1 1   O  1S          0.00000  -0.04918   0.02732
   2        2S          0.00000   0.94323  -1.25437
   3        2PX         0.16732   0.00000   0.00000
   4        2PY        -0.67325   0.00000   0.00000
   5        2PZ         0.00000  -0.36690   0.08583
   6        3S          0.00000  -0.62852   3.47414
   7        3PX        -0.24297   0.00000   0.00000
   8        3PY         0.97766   0.00000   0.00000
   9        3PZ         0.00000   0.53201  -1.75814
  10 2   O  1S          0.00000  -0.04918  -0.02732
  11        2S          0.00000   0.94323   1.25437
  12        2PX        -0.16732   0.00000   0.00000
  13        2PY         0.67325   0.00000   0.00000
  14        2PZ         0.00000   0.36690   0.08583
  15        3S          0.00000  -0.62852  -3.47414
  16        3PX         0.24297   0.00000   0.00000
  17        3PY        -0.97766   0.00000   0.00000
  18        3PZ         0.00000  -0.53201  -1.75814
     Alpha Density Matrix:
                           1         2         3         4         5
   1 1   O  1S          1.04679
   2        2S         -0.11209   0.32701
   3        2PX         0.00000   0.00000   0.54381
   4        2PY         0.00000   0.00000   0.00000   0.54381
   5        2PZ        -0.02041   0.03601   0.00000   0.00000   0.27064
   6        3S         -0.14690   0.33299   0.00000   0.00000   0.13690
   7        3PX         0.00000   0.00000   0.32357   0.00000   0.00000
   8        3PY         0.00000   0.00000   0.00000   0.32357   0.00000
   9        3PZ         0.00296  -0.00324   0.00000   0.00000   0.11151
  10 2   O  1S         -0.00099   0.00205   0.00000   0.00000   0.01957
  11        2S          0.00205  -0.00669   0.00000   0.00000  -0.05480
  12        2PX         0.00000   0.00000  -0.06625   0.00000   0.00000
  13        2PY         0.00000   0.00000   0.00000  -0.06625   0.00000
  14        2PZ        -0.01957   0.05480   0.00000   0.00000  -0.24585
  15        3S          0.04379  -0.09924   0.00000   0.00000   0.01890
  16        3PX         0.00000   0.00000  -0.08129   0.00000   0.00000
  17        3PY         0.00000   0.00000   0.00000  -0.08129   0.00000
  18        3PZ         0.01419  -0.02587   0.00000   0.00000  -0.11950
                           6         7         8         9        10
   6        3S          0.39422
   7        3PX         0.00000   0.19579
   8        3PY         0.00000   0.00000   0.19579
   9        3PZ         0.02746   0.00000   0.00000   0.05446
  10 2   O  1S          0.04379   0.00000   0.00000  -0.01419   1.04679
  11        2S         -0.09924   0.00000   0.00000   0.02587  -0.11209
  12        2PX         0.00000  -0.08129   0.00000   0.00000   0.00000
  13        2PY         0.00000   0.00000  -0.08129   0.00000   0.00000
  14        2PZ        -0.01890   0.00000   0.00000  -0.11950   0.02041
  15        3S         -0.16747   0.00000   0.00000   0.06547  -0.14690
  16        3PX         0.00000  -0.07288   0.00000   0.00000   0.00000
  17        3PY         0.00000   0.00000  -0.07288   0.00000   0.00000
  18        3PZ        -0.06547   0.00000   0.00000  -0.05187  -0.00296
                          11        12        13        14        15
  11        2S          0.32701
  12        2PX         0.00000   0.54381
  13        2PY         0.00000   0.00000   0.54381
  14        2PZ        -0.03601   0.00000   0.00000   0.27064
  15        3S          0.33299   0.00000   0.00000  -0.13690   0.39422
  16        3PX         0.00000   0.32357   0.00000   0.00000   0.00000
  17        3PY         0.00000   0.00000   0.32357   0.00000   0.00000
  18        3PZ         0.00324   0.00000   0.00000   0.11151  -0.02746
                          16        17        18
  16        3PX         0.19579
  17        3PY         0.00000   0.19579
  18        3PZ         0.00000   0.00000   0.05446
     Beta Density Matrix:
                           1         2         3         4         5
   1 1   O  1S          1.04389
   2        2S         -0.09874   0.27297
   3        2PX         0.00000   0.00000   0.16787
   4        2PY         0.00000   0.00000   0.00000   0.16787
   5        2PZ        -0.02297   0.03888   0.00000   0.00000   0.26795
   6        3S         -0.13639   0.29343   0.00000   0.00000   0.14586
   7        3PX         0.00000   0.00000   0.13102   0.00000   0.00000
   8        3PY         0.00000   0.00000   0.00000   0.13102   0.00000
   9        3PZ        -0.00990   0.02535   0.00000   0.00000   0.12550
  10 2   O  1S          0.00053   0.00065   0.00000   0.00000   0.02391
  11        2S          0.00065  -0.00834   0.00000   0.00000  -0.06598
  12        2PX         0.00000   0.00000   0.16787   0.00000   0.00000
  13        2PY         0.00000   0.00000   0.00000   0.16787   0.00000
  14        2PZ        -0.02391   0.06598   0.00000   0.00000  -0.22876
  15        3S          0.02637  -0.06080   0.00000   0.00000   0.01344
  16        3PX         0.00000   0.00000   0.13102   0.00000   0.00000
  17        3PY         0.00000   0.00000   0.00000   0.13102   0.00000
  18        3PZ         0.00171   0.00658   0.00000   0.00000  -0.11363
                           6         7         8         9        10
   6        3S          0.36014
   7        3PX         0.00000   0.10226
   8        3PY         0.00000   0.00000   0.10226
   9        3PZ         0.07298   0.00000   0.00000   0.06130
  10 2   O  1S          0.02637   0.00000   0.00000  -0.00171   1.04389
  11        2S         -0.06080   0.00000   0.00000  -0.00658  -0.09874
  12        2PX         0.00000   0.13102   0.00000   0.00000   0.00000
  13        2PY         0.00000   0.00000   0.13102   0.00000   0.00000
  14        2PZ        -0.01344   0.00000   0.00000  -0.11363   0.02297
  15        3S         -0.08733   0.00000   0.00000   0.03289  -0.13639
  16        3PX         0.00000   0.10226   0.00000   0.00000   0.00000
  17        3PY         0.00000   0.00000   0.10226   0.00000   0.00000
  18        3PZ        -0.03289   0.00000   0.00000  -0.05767   0.00990
                          11        12        13        14        15
  11        2S          0.27297
  12        2PX         0.00000   0.16787
  13        2PY         0.00000   0.00000   0.16787
  14        2PZ        -0.03888   0.00000   0.00000   0.26795
  15        3S          0.29343   0.00000   0.00000  -0.14586   0.36014
  16        3PX         0.00000   0.13102   0.00000   0.00000   0.00000
  17        3PY         0.00000   0.00000   0.13102   0.00000   0.00000
  18        3PZ        -0.02535   0.00000   0.00000   0.12550  -0.07298
                          16        17        18
  16        3PX         0.10226
  17        3PY         0.00000   0.10226
  18        3PZ         0.00000   0.00000   0.06130
    Full Mulliken population analysis:
                           1         2         3         4         5
   1 1   O  1S          2.09068
   2        2S         -0.04927   0.59997
   3        2PX         0.00000   0.00000   0.71168
   4        2PY         0.00000   0.00000   0.00000   0.71168
   5        2PZ         0.00000   0.00000   0.00000   0.00000   0.53859
   6        3S         -0.04739   0.47837   0.00000   0.00000   0.00000
   7        3PX         0.00000   0.00000   0.22798   0.00000   0.00000
   8        3PY         0.00000   0.00000   0.00000   0.22798   0.00000
   9        3PZ         0.00000   0.00000   0.00000   0.00000   0.11887
  10 2   O  1S          0.00000   0.00001   0.00000   0.00000  -0.00044
  11        2S          0.00001  -0.00125   0.00000   0.00000   0.01615
  12        2PX         0.00000   0.00000   0.00417   0.00000   0.00000
  13        2PY         0.00000   0.00000   0.00000   0.00417   0.00000
  14        2PZ        -0.00044   0.01615   0.00000   0.00000   0.09190
  15        3S          0.00294  -0.04025   0.00000   0.00000  -0.00612
  16        3PX         0.00000   0.00000   0.00788   0.00000   0.00000
  17        3PY         0.00000   0.00000   0.00000   0.00788   0.00000
  18        3PZ         0.00154  -0.00903   0.00000   0.00000   0.04803
                           6         7         8         9        10
   6        3S          0.75437
   7        3PX         0.00000   0.29805
   8        3PY         0.00000   0.00000   0.29805
   9        3PZ         0.00000   0.00000   0.00000   0.11577
  10 2   O  1S          0.00294   0.00000   0.00000   0.00154   2.09068
  11        2S         -0.04025   0.00000   0.00000  -0.00903  -0.04927
  12        2PX         0.00000   0.00788   0.00000   0.00000   0.00000
  13        2PY         0.00000   0.00000   0.00788   0.00000   0.00000
  14        2PZ        -0.00612   0.00000   0.00000   0.04803   0.00000
  15        3S         -0.12474   0.00000   0.00000  -0.05755  -0.04739
  16        3PX         0.00000   0.01438   0.00000   0.00000   0.00000
  17        3PY         0.00000   0.00000   0.01438   0.00000   0.00000
  18        3PZ        -0.05755   0.00000   0.00000   0.02298   0.00000
                          11        12        13        14        15
  11        2S          0.59997
  12        2PX         0.00000   0.71168
  13        2PY         0.00000   0.00000   0.71168
  14        2PZ         0.00000   0.00000   0.00000   0.53859
  15        3S          0.47837   0.00000   0.00000   0.00000   0.75437
  16        3PX         0.00000   0.22798   0.00000   0.00000   0.00000
  17        3PY         0.00000   0.00000   0.22798   0.00000   0.00000
  18        3PZ         0.00000   0.00000   0.00000   0.11887   0.00000
                          16        17        18
  16        3PX         0.29805
  17        3PY         0.00000   0.29805
  18        3PZ         0.00000   0.00000   0.11577
     Gross orbital populations:
                         Total     Alpha     Beta      Spin
   1 1   O  1S          1.99808   0.99905   0.99903   0.00002
   2        2S          0.99471   0.52481   0.46990   0.05492
   3        2PX         0.95171   0.69049   0.26122   0.42928
   4        2PY         0.95171   0.69049   0.26122   0.42928
   5        2PZ         0.80699   0.40235   0.40463  -0.00228
   6        3S          0.95962   0.47694   0.48268  -0.00574
   7        3PX         0.54829   0.30951   0.23878   0.07072
   8        3PY         0.54829   0.30951   0.23878   0.07072
   9        3PZ         0.24060   0.09685   0.14376  -0.04691
  10 2   O  1S          1.99808   0.99905   0.99903   0.00002
  11        2S          0.99471   0.52481   0.46990   0.05492
  12        2PX         0.95171   0.69049   0.26122   0.42928
  13        2PY         0.95171   0.69049   0.26122   0.42928
  14        2PZ         0.80699   0.40235   0.40463  -0.00228
  15        3S          0.95962   0.47694   0.48268  -0.00574
  16        3PX         0.54829   0.30951   0.23878   0.07072
  17        3PY         0.54829   0.30951   0.23878   0.07072
  18        3PZ         0.24060   0.09685   0.14376  -0.04691
          Condensed to atoms (all electrons):
               1          2
     1  O    8.031922  -0.031922
     2  O   -0.031922   8.031922
          Atomic-Atomic Spin Densities.
               1          2
     1  O    1.448748  -0.448748
     2  O   -0.448748   1.448748
 Mulliken charges and spin densities:
               1          2
     1  O    0.000000   1.000000
     2  O    0.000000   1.000000
 Sum of Mulliken charges =   0.00000   2.00000
 Mulliken charges and spin densities with hydrogens summed into heavy atoms:
               1          2
     1  O    0.000000   1.000000
     2  O    0.000000   1.000000
 Electronic spatial extent (au):  <R**2>=             44.3475
 Charge=              0.0000 electrons
 Dipole moment (field-independent basis, Debye):
    X=              0.0000    Y=              0.0000    Z=              0.0000  Tot=              0.0000
 Quadrupole moment (field-independent basis, Debye-Ang):
   XX=             -9.9975   YY=             -9.9975   ZZ=            -11.1900
   XY=              0.0000   XZ=              0.0000   YZ=              0.0000
 Traceless Quadrupole moment (field-independent basis, Debye-Ang):
   XX=              0.3975   YY=              0.3975   ZZ=             -0.7950
   XY=              0.0000   XZ=              0.0000   YZ=              0.0000
 Octapole moment (field-independent basis, Debye-Ang**2):
  XXX=              0.0000  YYY=              0.0000  ZZZ=              0.0000  XYY=              0.0000
  XXY=              0.0000  XXZ=              0.0000  XZZ=              0.0000  YZZ=              0.0000
  YYZ=              0.0000  XYZ=              0.0000
 Hexadecapole moment (field-independent basis, Debye-Ang**3):
 XXXX=             -6.6859 YYYY=             -6.6859 ZZZZ=            -29.0840 XXXY=              0.0000
 XXXZ=              0.0000 YYYX=              0.0000 YYYZ=              0.0000 ZZZX=              0.0000
 ZZZY=              0.0000 XXYY=             -2.2286 XXZZ=             -6.1243 YYZZ=             -6.1243
 XXYZ=              0.0000 YYXZ=              0.0000 ZZXY=              0.0000
 N-N= 2.782461435104D+01 E-N=-4.102464041585D+02  KE= 1.495118985784D+02
 Orbital energies and kinetic energies (alpha):
                                 1                 2
   1         O               -20.774101         29.178439
   2         O               -20.773626         29.170595
   3         O                -1.752149          2.985047
   4         O                -1.209013          3.460673
   5         O                -0.852661          2.443106
   6         O                -0.852661          2.443106
   7         O                -0.750764          2.717326
   8         O                -0.575281          3.092032
   9         O                -0.575281          3.092032
  10         V                 0.382332          3.438913
  11         V                 1.014781          3.302983
  12         V                 1.014781          3.302983
  13         V                 1.076786          3.948410
  14         V                 1.111979          3.354030
  15         V                 1.127821          3.066103
  16         V                 1.127821          3.066103
  17         V                 1.239595          3.217916
  18         V                 1.666499          3.491861
 Orbital energies and kinetic energies (beta):
                                 1                 2
   1         O               -20.718745         29.231908
   2         O               -20.717660         29.230909
   3         O                -1.607616          2.801324
   4         O                -1.000420          3.163839
   5         O                -0.688653          2.616467
   6         O                -0.578083          1.942547
   7         O                -0.578083          1.942547
   8         V                 0.088361          2.425980
   9         V                 0.088361          2.425980
  10         V                 0.462936          3.398306
  11         V                 1.109484          4.116929
  12         V                 1.140633          3.803542
  13         V                 1.140633          3.803542
  14         V                 1.150181          3.402937
  15         V                 1.250382          3.732155
  16         V                 1.250382          3.732155
  17         V                 1.256858          3.400122
  18         V                 1.714089          3.600468
 Total kinetic energy from orbitals= 1.495118985784D+02
 Leave Link  601 at Tue Sep 22 14:55:12 2015, MaxMem=    33554432 cpu:               0.0 elap:               0.0
 (Enter /home/gauss/gdvi01p/gdv/l9999.exe)
 Unable to Open any file for archive entry.
 1\1\GINC-MEDUSA\SP\UCIS-Full\6-31G\O2(3)\DBWY\22-Sep-2015\0\\#p uhf/6-
 31G gfinput pop=full nosymm cis(full,nstates=12,50-50)\\O2 6-31G\\0,3\
 O,0,0.,0.,0.608586\O,0,0.,0.,-0.608586\\Version=ES64L-GDVRevI.01+\HF=-
 149.5450375\MP2=-149.7872799\PUHF=-149.5538268\PMP2-0=-149.7924255\S2=
 2.033912\S2-1=2.005478\S2A=2.000578\RMSD=2.351e-09\PG=D*H [C*(O1.O1)]\
 \@
 The archive entry for this job was punched.


 10 WHATSOEVER THY HAND FINDETH TO DO, DO IT WITH THY  
 MIGHT. FOR THERE IS NO WORK, NOR DEVICE, NOR KNOWLEDGE, NOR  
 WISDOM, IN THE GRAVE, WHITHER THOU GOEST.                    
 11 I RETURNED AND SAW UNDER THE SUN, THAT THE RACE IS NOT TO 
 THE SWIFT, NOR THE BATTLE TO THE STRONG, NEITHER YET BREAD TO
 THE WISE, NOR YET RICHES TO MEN OF UNDERSTANDING, NOR YET    
 FAVOR TO MEN OF SKILL. BUT TIME AND CHANCE HAPPEN TO THEM ALL.
 12 FOR MAN ALSO KNOWETH NOT HIS TIME. AS THE FISHES   
 THAT ARE TAKEN IN AN EVIL NET, AND AS THE BIRDS THAT ARE     
 CAUGHT IN THE SNARE. SO ARE THE SONS OF MEN SNARED IN AN EVIL
 TIME, WHEN IT FALLETH SUDDENLY UPON THEM.
                                         ECCLESIASTES 9
 Job cpu time:       0 days  0 hours  0 minutes  0.9 seconds.
 Elapsed time:       0 days  0 hours  0 minutes  0.7 seconds.
 File lengths (MBytes):  RWF=     12 Int=      0 D2E=      0 Chk=      1 Scr=      1
 Normal termination of Gaussian DV at Tue Sep 22 14:55:12 2015.
