 Entering Gaussian System, Link 0=gdv
 Input=O2_cc-pVDZ_ROHF.com
 Output=O2_cc-pVDZ_ROHF.log
 Initial command:
 /home/gauss/gdvi01p/gdv/l1.exe "/home/GauScr/Gau-359.inp" -scrdir="/home/GauScr/"
 Entering Link 1 = /home/gauss/gdvi01p/gdv/l1.exe PID=       360.
  
 Copyright (c) 1988,1990,1992,1993,1995,1998,2003,2009,2014,
            Gaussian, Inc.  All Rights Reserved.
  
 This is the private, development version of
 the Gaussian(R) DV system of programs. It is based on
 the Gaussian(R) 09 system (copyright 2009, Gaussian, Inc.),
 the Gaussian(R) 03 system (copyright 2003, Gaussian, Inc.),
 the Gaussian(R) 98 system (copyright 1998, Gaussian, Inc.),
 the Gaussian(R) 94 system (copyright 1995, Gaussian, Inc.),
 the Gaussian 92(TM) system (copyright 1992, Gaussian, Inc.),
 the Gaussian 90(TM) system (copyright 1990, Gaussian, Inc.),
 the Gaussian 88(TM) system (copyright 1988, Gaussian, Inc.),
 the Gaussian 86(TM) system (copyright 1986, Carnegie Mellon
 University), and the Gaussian 82(TM) system (copyright 1983,
 Carnegie Mellon University). Gaussian is a federally registered
 trademark of Gaussian, Inc.
  
 This software contains proprietary and confidential information,
 including trade secrets, belonging to Gaussian, Inc.
  
 This software is provided under written license and may be
 used, copied, transmitted, or stored only in accord with that
 written license.
  
 The following legend is applicable only to US Government
 contracts under FAR:
  
                    RESTRICTED RIGHTS LEGEND
  
 Use, reproduction and disclosure by the US Government is
 subject to restrictions as set forth in subparagraphs (a)
 and (c) of the Commercial Computer Software - Restricted
 Rights clause in FAR 52.227-19.
  
 Gaussian, Inc.
 340 Quinnipiac St., Bldg. 40, Wallingford CT 06492
  
  
 ---------------------------------------------------------------
 Warning -- This program may not be used in any manner that
 competes with the business of Gaussian, Inc. or will provide
 assistance to any competitor of Gaussian, Inc.  The licensee
 of this program is prohibited from giving any competitor of
 Gaussian, Inc. access to this program.  By using this program,
 the user acknowledges that Gaussian, Inc. is engaged in the
 business of creating and licensing software in the field of
 computational chemistry and represents and warrants to the
 licensee that it is not a competitor of Gaussian, Inc. and that
 it will not use this program in any manner prohibited above.
 ---------------------------------------------------------------
  

 Cite this work as:
 Gaussian Development Version, Revision I.01+,
 M. J. Frisch, G. W. Trucks, H. B. Schlegel, G. E. Scuseria, 
 M. A. Robb, J. R. Cheeseman, G. Scalmani, V. Barone, B. Mennucci, 
 G. A. Petersson, H. Nakatsuji, M. Caricato, X. Li, H. P. Hratchian, 
 A. F. Izmaylov, J. Bloino, B. G. Janesko, F. Lipparini, G. Zheng, 
 J. L. Sonnenberg, W. Liang, M. Hada, M. Ehara, K. Toyota, R. Fukuda, 
 J. Hasegawa, M. Ishida, T. Nakajima, Y. Honda, O. Kitao, H. Nakai, 
 T. Vreven, J. A. Montgomery, Jr., J. E. Peralta, F. Ogliaro, 
 M. Bearpark, J. J. Heyd, E. Brothers, K. N. Kudin, V. N. Staroverov, 
 T. Keith, R. Kobayashi, J. Normand, K. Raghavachari, A. Rendell, 
 J. C. Burant, S. S. Iyengar, J. Tomasi, M. Cossi, N. Rega, 
 J. M. Millam, M. Klene, J. E. Knox, J. B. Cross, V. Bakken, 
 C. Adamo, J. Jaramillo, R. Gomperts, R. E. Stratmann, O. Yazyev, 
 A. J. Austin, R. Cammi, C. Pomelli, J. W. Ochterski, R. L. Martin, 
 K. Morokuma, V. G. Zakrzewski, G. A. Voth, P. Salvador, 
 J. J. Dannenberg, S. Dapprich, P. V. Parandekar, N. J. Mayhall, 
 A. D. Daniels, O. Farkas, J. B. Foresman, J. V. Ortiz, 
 J. Cioslowski, and D. J. Fox, Gaussian, Inc., Wallingford CT, 2010.
 
 *******************************************
 Gaussian DV:  ES64L-GDVRevI.01+ 11-Sep-2014
                 22-Sep-2015 
 *******************************************
 ---------------------------------------
 #p rohf/cc-pVDZ gfinput pop=full nosymm
 ---------------------------------------
 1/38=1,172=1/1;
 2/12=2,15=1,17=6,18=5,40=1/2;
 3/5=16,11=2,24=10,25=1,30=1,116=101/1,2,3;
 4//1;
 5/5=2,38=5/2;
 6/7=3,28=1/1;
 99/5=1,9=1/99;
 Leave Link    1 at Tue Sep 22 13:39:43 2015, MaxMem=           0 cpu:               0.0 elap:               0.0
 (Enter /home/gauss/gdvi01p/gdv/l101.exe)
 ----------
 O2 cc-pVDZ
 ----------
 Symbolic Z-matrix:
 Charge =  0 Multiplicity = 3
 O                     0.        0.        0.60859 
 O                     0.        0.       -0.60859 
 
 ITRead=  0  0
 MicOpt= -1 -1
 NAtoms=      2 NQM=        2 NQMF=       0 NMMI=      0 NMMIF=      0
                NMic=       0 NMicF=      0.
                    Isotopes and Nuclear Properties:
 (Nuclear quadrupole moments (NQMom) in fm**2, nuclear magnetic moments (NMagM)
  in nuclear magnetons)

  Atom         1           2
 IAtWgt=          16          16
 AtmWgt=  15.9949146  15.9949146
 NucSpn=           0           0
 AtZEff=   0.0000000   0.0000000
 NQMom=    0.0000000   0.0000000
 NMagM=    0.0000000   0.0000000
 AtZNuc=   8.0000000   8.0000000
 Leave Link  101 at Tue Sep 22 13:39:43 2015, MaxMem=    33554432 cpu:               0.1 elap:               0.1
 (Enter /home/gauss/gdvi01p/gdv/l202.exe)
                          Input orientation:                          
 ---------------------------------------------------------------------
 Center     Atomic      Atomic             Coordinates (Angstroms)
 Number     Number       Type             X           Y           Z
 ---------------------------------------------------------------------
      1          8           0        0.000000    0.000000    0.608586
      2          8           0        0.000000    0.000000   -0.608586
 ---------------------------------------------------------------------
 Symmetry turned off by external request.
 Stoichiometry    O2(3)
 Framework group  D*H[C*(O.O)]
 Deg. of freedom     1
 Full point group                 D*H     NOp   8
 Rotational constants (GHZ):      0.0000000     42.6541569     42.6541569
 Leave Link  202 at Tue Sep 22 13:39:43 2015, MaxMem=    33554432 cpu:               0.0 elap:               0.0
 (Enter /home/gauss/gdvi01p/gdv/l301.exe)
 Standard basis: CC-pVDZ (5D, 7F)
 Ernie: Thresh=  0.10000D-02 Tol=  0.10000D-05 Strict=F.
 Ernie:  4 primitive shells out of 44 were deleted.
 AO basis set in the form of general basis input (Overlap normalization):
      1 0
 S   7 1.00       0.000000000000
      0.1172000000D+05  0.7118644339D-03
      0.1759000000D+04  0.5485201992D-02
      0.4008000000D+03  0.2790992963D-01
      0.1137000000D+03  0.1051332075D+00
      0.3703000000D+02  0.2840024898D+00
      0.1327000000D+02  0.4516739459D+00
      0.5025000000D+01  0.2732081255D+00
 S   7 1.00       0.000000000000
      0.1172000000D+05  0.7690300460D-05
      0.4008000000D+03  0.3134845790D-03
      0.1137000000D+03 -0.2966148530D-02
      0.3703000000D+02 -0.1087535430D-01
      0.1327000000D+02 -0.1207538168D+00
      0.5025000000D+01 -0.1062752639D+00
      0.1013000000D+01  0.1095975478D+01
 S   1 1.00       0.000000000000
      0.3023000000D+00  0.1000000000D+01
 P   3 1.00       0.000000000000
      0.1770000000D+02  0.6267916628D-01
      0.3854000000D+01  0.3335365659D+00
      0.1046000000D+01  0.7412396416D+00
 P   1 1.00       0.000000000000
      0.2753000000D+00  0.1000000000D+01
 D   1 1.00       0.000000000000
      0.1185000000D+01  0.1000000000D+01
 ****
      2 0
 S   7 1.00       0.000000000000
      0.1172000000D+05  0.7118644339D-03
      0.1759000000D+04  0.5485201992D-02
      0.4008000000D+03  0.2790992963D-01
      0.1137000000D+03  0.1051332075D+00
      0.3703000000D+02  0.2840024898D+00
      0.1327000000D+02  0.4516739459D+00
      0.5025000000D+01  0.2732081255D+00
 S   7 1.00       0.000000000000
      0.1172000000D+05  0.7690300460D-05
      0.4008000000D+03  0.3134845790D-03
      0.1137000000D+03 -0.2966148530D-02
      0.3703000000D+02 -0.1087535430D-01
      0.1327000000D+02 -0.1207538168D+00
      0.5025000000D+01 -0.1062752639D+00
      0.1013000000D+01  0.1095975478D+01
 S   1 1.00       0.000000000000
      0.3023000000D+00  0.1000000000D+01
 P   3 1.00       0.000000000000
      0.1770000000D+02  0.6267916628D-01
      0.3854000000D+01  0.3335365659D+00
      0.1046000000D+01  0.7412396416D+00
 P   1 1.00       0.000000000000
      0.2753000000D+00  0.1000000000D+01
 D   1 1.00       0.000000000000
      0.1185000000D+01  0.1000000000D+01
 ****

    28 basis functions,    66 primitive gaussians,    30 cartesian basis functions
     9 alpha electrons        7 beta electrons
       nuclear repulsion energy        27.8246143510 Hartrees.
 IExCor=    0 DFT=F Ex=HF Corr=None ExCW=0 ScaHFX=  1.000000
 ScaDFX=  1.000000  1.000000  1.000000  1.000000 ScalE2=  1.000000  1.000000
 IRadAn=      0 IRanWt=     -1 IRanGd=            0 ICorTp=0 IEmpDi=  4
 NAtoms=    2 NActive=    2 NUniq=    2 SFac= 1.00D+00 NAtFMM=   60 NAOKFM=F Big=F
 Integral buffers will be    131072 words long.
 Raffenetti 2 integral format.
 Two-electron integral symmetry is turned off.
 Leave Link  301 at Tue Sep 22 13:39:43 2015, MaxMem=    33554432 cpu:               0.1 elap:               0.1
 (Enter /home/gauss/gdvi01p/gdv/l302.exe)
 NPDir=0 NMtPBC=     1 NCelOv=     1 NCel=       1 NClECP=     1 NCelD=      1
         NCelK=      1 NCelE2=     1 NClLst=     1 CellRange=     0.0.
 One-electron integrals computed using PRISM.
 One-electron integral symmetry used in STVInt
 NBasis=    28 RedAO= T EigKep=  2.01D-02  NBF=    28
 NBsUse=    28 1.00D-06 EigRej= -1.00D+00 NBFU=    28
 Leave Link  302 at Tue Sep 22 13:39:43 2015, MaxMem=    33554432 cpu:               0.1 elap:               0.1
 (Enter /home/gauss/gdvi01p/gdv/l303.exe)
 DipDrv:  MaxL=1.
 Leave Link  303 at Tue Sep 22 13:39:43 2015, MaxMem=    33554432 cpu:               0.0 elap:               0.0
 (Enter /home/gauss/gdvi01p/gdv/l401.exe)
 ExpMin= 2.75D-01 ExpMax= 1.17D+04 ExpMxC= 4.01D+02 IAcc=1 IRadAn=         1 AccDes= 0.00D+00
 Harris functional with IExCor=  205 and IRadAn=       1 diagonalized for initial guess.
 HarFok:  IExCor=  205 AccDes= 0.00D+00 IRadAn=         1 IDoV= 1 UseB2=F ITyADJ=14
 ICtDFT=  3500011 ScaDFX=  1.000000  1.000000  1.000000  1.000000
 FoFCou: FMM=F IPFlag=           0 FMFlag=      100000 FMFlg1=           0
         NFxFlg=           0 DoJE=T BraDBF=F KetDBF=T FulRan=T
         wScrn=  0.000000 ICntrl=       500 IOpCl=  0 I1Cent=   200000004 NGrid=           0
         NMat0=    1 NMatS0=      1 NMatT0=    0 NMatD0=    1 NMtDS0=    0 NMtDT0=    0
 Symmetry not used in FoFCou.
 Harris En= -149.552032709644    
 JPrj=0 DoOrth=F DoCkMO=F.
 Leave Link  401 at Tue Sep 22 13:39:43 2015, MaxMem=    33554432 cpu:               0.1 elap:               0.1
 (Enter /home/gauss/gdvi01p/gdv/l502.exe)
 Keep R1 and R2 ints in memory in canonical form, NReq=1000823.
 FoFCou: FMM=F IPFlag=           0 FMFlag=           0 FMFlg1=           0
         NFxFlg=           0 DoJE=F BraDBF=F KetDBF=F FulRan=T
         wScrn=  0.000000 ICntrl=       600 IOpCl=  0 I1Cent=           0 NGrid=           0
         NMat0=    1 NMatS0=    406 NMatT0=    0 NMatD0=    1 NMtDS0=    0 NMtDT0=    0
 Symmetry not used in FoFCou.
 Two-electron integral symmetry not used.
 Restricted open shell SCF:
 Using DIIS extrapolation, IDIIS=  1040.
 NGot=    33554432 LenX=    33386838 LenY=    33385497
 Requested convergence on RMS density matrix=1.00D-08 within 128 cycles.
 Requested convergence on MAX density matrix=1.00D-06.
 Requested convergence on             energy=1.00D-06.
 No special actions if energy rises.

 Cycle   1  Pass 1  IDiag  1:
 E= -149.591823103267    
 DIIS: error= 6.19D-02 at cycle   1 NSaved=   1.
 NSaved= 1 IEnMin= 1 EnMin= -149.591823103267     IErMin= 1 ErrMin= 6.19D-02
 ErrMax= 6.19D-02  0.00D+00 EMaxC= 1.00D-01 BMatC= 5.17D-02 BMatP= 5.17D-02
 IDIUse=3 WtCom= 3.81D-01 WtEn= 6.19D-01
 Coeff-Com:  0.100D+01
 Coeff-En:   0.100D+01
 Coeff:      0.100D+01
 Gap=     0.591 Goal=   None    Shift=    0.000
 GapD=    0.591 DampG=2.000 DampE=0.500 DampFc=1.0000 IDamp=-1.
 RMSDP=2.70D-03 MaxDP=1.72D-02              OVMax= 1.81D-02

 Cycle   2  Pass 1  IDiag  1:
 E= -149.605798484187     Delta-E=       -0.013975380920 Rises=F Damp=F
 DIIS: error= 3.89D-03 at cycle   2 NSaved=   2.
 NSaved= 2 IEnMin= 2 EnMin= -149.605798484187     IErMin= 2 ErrMin= 3.89D-03
 ErrMax= 3.89D-03  0.00D+00 EMaxC= 1.00D-01 BMatC= 4.93D-04 BMatP= 5.17D-02
 IDIUse=3 WtCom= 9.61D-01 WtEn= 3.89D-02
 Coeff-Com: -0.650D-02 0.101D+01
 Coeff-En:   0.000D+00 0.100D+01
 Coeff:     -0.625D-02 0.101D+01
 Gap=     0.583 Goal=   None    Shift=    0.000
 RMSDP=4.97D-04 MaxDP=5.28D-03 DE=-1.40D-02 OVMax= 3.83D-03

 Cycle   3  Pass 1  IDiag  1:
 E= -149.606050249921     Delta-E=       -0.000251765734 Rises=F Damp=F
 DIIS: error= 7.32D-04 at cycle   3 NSaved=   3.
 NSaved= 3 IEnMin= 3 EnMin= -149.606050249921     IErMin= 3 ErrMin= 7.32D-04
 ErrMax= 7.32D-04  0.00D+00 EMaxC= 1.00D-01 BMatC= 1.93D-05 BMatP= 4.93D-04
 IDIUse=3 WtCom= 9.93D-01 WtEn= 7.32D-03
 Coeff-Com: -0.110D-01 0.729D-01 0.938D+00
 Coeff-En:   0.000D+00 0.000D+00 0.100D+01
 Coeff:     -0.109D-01 0.724D-01 0.939D+00
 Gap=     0.582 Goal=   None    Shift=    0.000
 RMSDP=1.15D-04 MaxDP=1.06D-03 DE=-2.52D-04 OVMax= 9.13D-04

 Cycle   4  Pass 1  IDiag  1:
 E= -149.606061119782     Delta-E=       -0.000010869861 Rises=F Damp=F
 DIIS: error= 1.86D-04 at cycle   4 NSaved=   4.
 NSaved= 4 IEnMin= 4 EnMin= -149.606061119782     IErMin= 4 ErrMin= 1.86D-04
 ErrMax= 1.86D-04  0.00D+00 EMaxC= 1.00D-01 BMatC= 7.99D-07 BMatP= 1.93D-05
 IDIUse=3 WtCom= 9.98D-01 WtEn= 1.86D-03
 Coeff-Com: -0.624D-03-0.884D-02 0.836D-01 0.926D+00
 Coeff-En:   0.000D+00 0.000D+00 0.000D+00 0.100D+01
 Coeff:     -0.622D-03-0.882D-02 0.835D-01 0.926D+00
 Gap=     0.582 Goal=   None    Shift=    0.000
 RMSDP=2.80D-05 MaxDP=2.84D-04 DE=-1.09D-05 OVMax= 2.42D-04

 Cycle   5  Pass 1  IDiag  1:
 E= -149.606061733314     Delta-E=       -0.000000613532 Rises=F Damp=F
 DIIS: error= 5.36D-05 at cycle   5 NSaved=   5.
 NSaved= 5 IEnMin= 5 EnMin= -149.606061733314     IErMin= 5 ErrMin= 5.36D-05
 ErrMax= 5.36D-05  0.00D+00 EMaxC= 1.00D-01 BMatC= 4.89D-08 BMatP= 7.99D-07
 IDIUse=1 WtCom= 1.00D+00 WtEn= 0.00D+00
 Coeff-Com:  0.370D-03-0.495D-02-0.493D-01 0.901D-01 0.964D+00
 Coeff:      0.370D-03-0.495D-02-0.493D-01 0.901D-01 0.964D+00
 Gap=     0.582 Goal=   None    Shift=    0.000
 RMSDP=7.56D-06 MaxDP=7.26D-05 DE=-6.14D-07 OVMax= 6.04D-05

 Cycle   6  Pass 1  IDiag  1:
 E= -149.606061770311     Delta-E=       -0.000000036997 Rises=F Damp=F
 DIIS: error= 2.03D-06 at cycle   6 NSaved=   6.
 NSaved= 6 IEnMin= 6 EnMin= -149.606061770311     IErMin= 6 ErrMin= 2.03D-06
 ErrMax= 2.03D-06  0.00D+00 EMaxC= 1.00D-01 BMatC= 1.50D-10 BMatP= 4.89D-08
 IDIUse=1 WtCom= 1.00D+00 WtEn= 0.00D+00
 Coeff-Com: -0.668D-04 0.101D-02 0.962D-02-0.249D-01-0.190D+00 0.120D+01
 Coeff:     -0.668D-04 0.101D-02 0.962D-02-0.249D-01-0.190D+00 0.120D+01
 Gap=     0.582 Goal=   None    Shift=    0.000
 RMSDP=6.41D-07 MaxDP=4.94D-06 DE=-3.70D-08 OVMax= 4.59D-06

 Cycle   7  Pass 1  IDiag  1:
 E= -149.606061770482     Delta-E=       -0.000000000171 Rises=F Damp=F
 DIIS: error= 1.09D-07 at cycle   7 NSaved=   7.
 NSaved= 7 IEnMin= 7 EnMin= -149.606061770482     IErMin= 7 ErrMin= 1.09D-07
 ErrMax= 1.09D-07  0.00D+00 EMaxC= 1.00D-01 BMatC= 4.52D-13 BMatP= 1.50D-10
 IDIUse=1 WtCom= 1.00D+00 WtEn= 0.00D+00
 Coeff-Com:  0.803D-05-0.133D-03-0.104D-02 0.303D-02 0.210D-01-0.157D+00
 Coeff-Com:  0.113D+01
 Coeff:      0.803D-05-0.133D-03-0.104D-02 0.303D-02 0.210D-01-0.157D+00
 Coeff:      0.113D+01
 Gap=     0.582 Goal=   None    Shift=    0.000
 RMSDP=2.75D-08 MaxDP=2.25D-07 DE=-1.71D-10 OVMax= 2.81D-07

 Cycle   8  Pass 1  IDiag  1:
 E= -149.606061770483     Delta-E=       -0.000000000001 Rises=F Damp=F
 DIIS: error= 1.83D-08 at cycle   8 NSaved=   8.
 NSaved= 8 IEnMin= 8 EnMin= -149.606061770483     IErMin= 8 ErrMin= 1.83D-08
 ErrMax= 1.83D-08  0.00D+00 EMaxC= 1.00D-01 BMatC= 6.96D-15 BMatP= 4.52D-13
 IDIUse=1 WtCom= 1.00D+00 WtEn= 0.00D+00
 Coeff-Com: -0.156D-05 0.260D-04 0.202D-03-0.594D-03-0.405D-02 0.325D-01
 Coeff-Com: -0.320D+00 0.129D+01
 Coeff:     -0.156D-05 0.260D-04 0.202D-03-0.594D-03-0.405D-02 0.325D-01
 Coeff:     -0.320D+00 0.129D+01
 Gap=     0.582 Goal=   None    Shift=    0.000
 RMSDP=3.54D-09 MaxDP=2.62D-08 DE=-6.25D-13 OVMax= 4.60D-08

 SCF Done:  E(ROHF) =  -149.606061770     A.U. after    8 cycles
            NFock=  8  Conv=0.35D-08     -V/T= 2.0011
 <Sx>= 0.0000 <Sy>= 0.0000 <Sz>= 1.0000 <S**2>= 2.0000 S= 1.0000
 <L.S>= 0.000000000000E+00
 KE= 1.494427071870D+02 PE=-4.105860506571D+02 EE= 8.371266734856D+01
 Annihilation of the first spin contaminant:
 S**2 before annihilation     2.0000,   after     2.0000
 Leave Link  502 at Tue Sep 22 13:39:43 2015, MaxMem=    33554432 cpu:               0.1 elap:               0.1
 (Enter /home/gauss/gdvi01p/gdv/l601.exe)
 Copying SCF densities to generalized density rwf, IOpCl= 0 IROHF=1.

 **********************************************************************

            Population analysis using the SCF density.

 **********************************************************************

 Alpha  occ. eigenvalues --  -20.72285 -20.72184  -1.62667  -1.07094  -0.71526
 Alpha  occ. eigenvalues --   -0.65858  -0.65858  -0.14089  -0.14089
 Alpha virt. eigenvalues --    0.44097   1.07174   1.09424   1.09424   1.15546
 Alpha virt. eigenvalues --    1.20112   1.20112   1.32560   1.95925   2.39153
 Alpha virt. eigenvalues --    2.39153   2.67140   2.67140   2.98140   2.98140
 Alpha virt. eigenvalues --    3.14187   3.64982   3.64982   4.18452
     Molecular Orbital Coefficients:
                           1         2         3         4         5
                           O         O         O         O         O
     Eigenvalues --   -20.72285 -20.72184  -1.62667  -1.07094  -0.71526
   1 1   O  1S          0.70516   0.70520  -0.15089  -0.15902  -0.05463
   2        2S          0.01018   0.01042   0.33476   0.36279   0.10191
   3        3S         -0.00174  -0.00400   0.26952   0.45334   0.26400
   4        4PX         0.00000   0.00000   0.00000   0.00000   0.00000
   5        4PY         0.00000   0.00000   0.00000   0.00000   0.00000
   6        4PZ        -0.00121  -0.00123  -0.15979   0.13774   0.46303
   7        5PX         0.00000   0.00000   0.00000   0.00000   0.00000
   8        5PY         0.00000   0.00000   0.00000   0.00000   0.00000
   9        5PZ         0.00055   0.00149  -0.04464   0.05230   0.24391
  10        6D 0       -0.00028   0.00033   0.02608  -0.01014  -0.03165
  11        6D+1        0.00000   0.00000   0.00000   0.00000   0.00000
  12        6D-1        0.00000   0.00000   0.00000   0.00000   0.00000
  13        6D+2        0.00000   0.00000   0.00000   0.00000   0.00000
  14        6D-2        0.00000   0.00000   0.00000   0.00000   0.00000
  15 2   O  1S          0.70516  -0.70520  -0.15089   0.15902  -0.05463
  16        2S          0.01018  -0.01042   0.33476  -0.36279   0.10191
  17        3S         -0.00174   0.00400   0.26952  -0.45334   0.26400
  18        4PX         0.00000   0.00000   0.00000   0.00000   0.00000
  19        4PY         0.00000   0.00000   0.00000   0.00000   0.00000
  20        4PZ         0.00121  -0.00123   0.15979   0.13774  -0.46303
  21        5PX         0.00000   0.00000   0.00000   0.00000   0.00000
  22        5PY         0.00000   0.00000   0.00000   0.00000   0.00000
  23        5PZ        -0.00055   0.00149   0.04464   0.05230  -0.24391
  24        6D 0       -0.00028  -0.00033   0.02608   0.01014  -0.03165
  25        6D+1        0.00000   0.00000   0.00000   0.00000   0.00000
  26        6D-1        0.00000   0.00000   0.00000   0.00000   0.00000
  27        6D+2        0.00000   0.00000   0.00000   0.00000   0.00000
  28        6D-2        0.00000   0.00000   0.00000   0.00000   0.00000
                           6         7         8         9        10
                           O         O         O         O         V
     Eigenvalues --    -0.65858  -0.65858  -0.14089  -0.14089   0.44097
   1 1   O  1S          0.00000   0.00000   0.00000   0.00000  -0.09711
   2        2S          0.00000   0.00000   0.00000   0.00000   0.18645
   3        3S          0.00000   0.00000   0.00000   0.00000   1.17407
   4        4PX        -0.27013   0.35384   0.35265   0.39983   0.00000
   5        4PY         0.35384   0.27013   0.39983  -0.35265   0.00000
   6        4PZ         0.00000   0.00000   0.00000   0.00000  -0.42002
   7        5PX        -0.17305   0.22667   0.26034   0.29517   0.00000
   8        5PY         0.22667   0.17305   0.29517  -0.26034   0.00000
   9        5PZ         0.00000   0.00000   0.00000   0.00000  -1.15494
  10        6D 0        0.00000   0.00000   0.00000   0.00000  -0.01642
  11        6D+1        0.01976  -0.02588   0.00320   0.00363   0.00000
  12        6D-1       -0.02588  -0.01976   0.00363  -0.00320   0.00000
  13        6D+2        0.00000   0.00000   0.00000   0.00000   0.00000
  14        6D-2        0.00000   0.00000   0.00000   0.00000   0.00000
  15 2   O  1S          0.00000   0.00000   0.00000   0.00000   0.09711
  16        2S          0.00000   0.00000   0.00000   0.00000  -0.18645
  17        3S          0.00000   0.00000   0.00000   0.00000  -1.17407
  18        4PX        -0.27013   0.35384  -0.35265  -0.39983   0.00000
  19        4PY         0.35384   0.27013  -0.39983   0.35265   0.00000
  20        4PZ         0.00000   0.00000   0.00000   0.00000  -0.42002
  21        5PX        -0.17305   0.22667  -0.26034  -0.29517   0.00000
  22        5PY         0.22667   0.17305  -0.29517   0.26034   0.00000
  23        5PZ         0.00000   0.00000   0.00000   0.00000  -1.15494
  24        6D 0        0.00000   0.00000   0.00000   0.00000   0.01642
  25        6D+1       -0.01976   0.02588   0.00320   0.00363   0.00000
  26        6D-1        0.02588   0.01976   0.00363  -0.00320   0.00000
  27        6D+2        0.00000   0.00000   0.00000   0.00000   0.00000
  28        6D-2        0.00000   0.00000   0.00000   0.00000   0.00000
                          11        12        13        14        15
                           V         V         V         V         V
     Eigenvalues --     1.07174   1.09424   1.09424   1.15546   1.20112
   1 1   O  1S          0.02298   0.00000   0.00000   0.02618   0.00000
   2        2S         -0.04306   0.00000   0.00000  -0.12114   0.00000
   3        3S         -0.97282   0.00000   0.00000   0.33167   0.00000
   4        4PX         0.00000  -0.34114   0.58838   0.00000  -0.56486
   5        4PY         0.00000   0.58838   0.34114   0.00000  -0.28680
   6        4PZ        -0.69481   0.00000   0.00000  -0.59110   0.00000
   7        5PX         0.00000   0.31274  -0.53940   0.00000   0.93990
   8        5PY         0.00000  -0.53940  -0.31274   0.00000   0.47722
   9        5PZ         1.34031   0.00000   0.00000   0.81164   0.00000
  10        6D 0       -0.08985   0.00000   0.00000   0.10114   0.00000
  11        6D+1        0.00000   0.01973  -0.03402   0.00000   0.00970
  12        6D-1        0.00000  -0.03402  -0.01973   0.00000   0.00492
  13        6D+2        0.00000   0.00000   0.00000   0.00000   0.00000
  14        6D-2        0.00000   0.00000   0.00000   0.00000   0.00000
  15 2   O  1S         -0.02298   0.00000   0.00000   0.02618   0.00000
  16        2S          0.04306   0.00000   0.00000  -0.12114   0.00000
  17        3S          0.97282   0.00000   0.00000   0.33167   0.00000
  18        4PX         0.00000  -0.34114   0.58838   0.00000   0.56486
  19        4PY         0.00000   0.58838   0.34114   0.00000   0.28680
  20        4PZ        -0.69481   0.00000   0.00000   0.59110   0.00000
  21        5PX         0.00000   0.31274  -0.53940   0.00000  -0.93990
  22        5PY         0.00000  -0.53940  -0.31274   0.00000  -0.47722
  23        5PZ         1.34031   0.00000   0.00000  -0.81164   0.00000
  24        6D 0        0.08985   0.00000   0.00000   0.10114   0.00000
  25        6D+1        0.00000  -0.01973   0.03402   0.00000   0.00970
  26        6D-1        0.00000   0.03402   0.01973   0.00000   0.00492
  27        6D+2        0.00000   0.00000   0.00000   0.00000   0.00000
  28        6D-2        0.00000   0.00000   0.00000   0.00000   0.00000
                          16        17        18        19        20
                           V         V         V         V         V
     Eigenvalues --     1.20112   1.32560   1.95925   2.39153   2.39153
   1 1   O  1S          0.00000  -0.04339  -0.00742   0.00000   0.00000
   2        2S          0.00000   1.08942  -1.38636   0.00000   0.00000
   3        3S          0.00000  -0.90974   3.23305   0.00000   0.00000
   4        4PX         0.28680   0.00000   0.00000   0.05179   0.07330
   5        4PY        -0.56486   0.00000   0.00000   0.07330  -0.05179
   6        4PZ         0.00000  -0.02806   0.04839   0.00000   0.00000
   7        5PX        -0.47722   0.00000   0.00000   0.01910   0.02704
   8        5PY         0.93990   0.00000   0.00000   0.02704  -0.01910
   9        5PZ         0.00000   0.09764  -1.52839   0.00000   0.00000
  10        6D 0        0.00000   0.12867  -0.01205   0.00000   0.00000
  11        6D+1       -0.00492   0.00000   0.00000   0.36950   0.52302
  12        6D-1        0.00970   0.00000   0.00000   0.52302  -0.36950
  13        6D+2        0.00000   0.00000   0.00000   0.00000   0.00000
  14        6D-2        0.00000   0.00000   0.00000   0.00000   0.00000
  15 2   O  1S          0.00000  -0.04339   0.00742   0.00000   0.00000
  16        2S          0.00000   1.08942   1.38636   0.00000   0.00000
  17        3S          0.00000  -0.90974  -3.23305   0.00000   0.00000
  18        4PX        -0.28680   0.00000   0.00000   0.05179   0.07330
  19        4PY         0.56486   0.00000   0.00000   0.07330  -0.05179
  20        4PZ         0.00000   0.02806   0.04839   0.00000   0.00000
  21        5PX         0.47722   0.00000   0.00000   0.01910   0.02704
  22        5PY        -0.93990   0.00000   0.00000   0.02704  -0.01910
  23        5PZ         0.00000  -0.09764  -1.52839   0.00000   0.00000
  24        6D 0        0.00000   0.12867   0.01205   0.00000   0.00000
  25        6D+1       -0.00492   0.00000   0.00000  -0.36950  -0.52302
  26        6D-1        0.00970   0.00000   0.00000  -0.52302   0.36950
  27        6D+2        0.00000   0.00000   0.00000   0.00000   0.00000
  28        6D-2        0.00000   0.00000   0.00000   0.00000   0.00000
                          21        22        23        24        25
                           V         V         V         V         V
     Eigenvalues --     2.67140   2.67140   2.98140   2.98140   3.14187
   1 1   O  1S          0.00000   0.00000   0.00000   0.00000   0.01667
   2        2S          0.00000   0.00000   0.00000   0.00000  -0.41995
   3        3S          0.00000   0.00000   0.00000   0.00000   0.18706
   4        4PX         0.00000   0.00000   0.00000   0.00000   0.00000
   5        4PY         0.00000   0.00000   0.00000   0.00000   0.00000
   6        4PZ         0.00000   0.00000   0.00000   0.00000   0.34818
   7        5PX         0.00000   0.00000   0.00000   0.00000   0.00000
   8        5PY         0.00000   0.00000   0.00000   0.00000   0.00000
   9        5PZ         0.00000   0.00000   0.00000   0.00000  -0.29635
  10        6D 0        0.00000   0.00000   0.00000   0.00000   0.64162
  11        6D+1        0.00000   0.00000   0.00000   0.00000   0.00000
  12        6D-1        0.00000   0.00000   0.00000   0.00000   0.00000
  13        6D+2        0.62330   0.30108   0.64480   0.32709   0.00000
  14        6D-2       -0.30108   0.62330  -0.32709   0.64480   0.00000
  15 2   O  1S          0.00000   0.00000   0.00000   0.00000   0.01667
  16        2S          0.00000   0.00000   0.00000   0.00000  -0.41995
  17        3S          0.00000   0.00000   0.00000   0.00000   0.18706
  18        4PX         0.00000   0.00000   0.00000   0.00000   0.00000
  19        4PY         0.00000   0.00000   0.00000   0.00000   0.00000
  20        4PZ         0.00000   0.00000   0.00000   0.00000  -0.34818
  21        5PX         0.00000   0.00000   0.00000   0.00000   0.00000
  22        5PY         0.00000   0.00000   0.00000   0.00000   0.00000
  23        5PZ         0.00000   0.00000   0.00000   0.00000   0.29635
  24        6D 0        0.00000   0.00000   0.00000   0.00000   0.64162
  25        6D+1        0.00000   0.00000   0.00000   0.00000   0.00000
  26        6D-1        0.00000   0.00000   0.00000   0.00000   0.00000
  27        6D+2        0.62330   0.30108  -0.64480  -0.32709   0.00000
  28        6D-2       -0.30108   0.62330   0.32709  -0.64480   0.00000
                          26        27        28
                           V         V         V
     Eigenvalues --     3.64982   3.64982   4.18452
   1 1   O  1S          0.00000   0.00000  -0.07306
   2        2S          0.00000   0.00000  -0.36169
   3        3S          0.00000   0.00000   2.05054
   4        4PX        -0.00115   0.01227   0.00000
   5        4PY         0.01227   0.00115   0.00000
   6        4PZ         0.00000   0.00000  -0.33449
   7        5PX         0.02536  -0.27162   0.00000
   8        5PY        -0.27162  -0.02536   0.00000
   9        5PZ         0.00000   0.00000  -1.21177
  10        6D 0        0.00000   0.00000   1.02924
  11        6D+1       -0.07729   0.82781   0.00000
  12        6D-1        0.82781   0.07729   0.00000
  13        6D+2        0.00000   0.00000   0.00000
  14        6D-2        0.00000   0.00000   0.00000
  15 2   O  1S          0.00000   0.00000   0.07306
  16        2S          0.00000   0.00000   0.36169
  17        3S          0.00000   0.00000  -2.05054
  18        4PX         0.00115  -0.01227   0.00000
  19        4PY        -0.01227  -0.00115   0.00000
  20        4PZ         0.00000   0.00000  -0.33449
  21        5PX        -0.02536   0.27162   0.00000
  22        5PY         0.27162   0.02536   0.00000
  23        5PZ         0.00000   0.00000  -1.21177
  24        6D 0        0.00000   0.00000  -1.02924
  25        6D+1       -0.07729   0.82781   0.00000
  26        6D-1        0.82781   0.07729   0.00000
  27        6D+2        0.00000   0.00000   0.00000
  28        6D-2        0.00000   0.00000   0.00000
     Alpha Density Matrix:
                           1         2         3         4         5
   1 1   O  1S          1.04560
   2        2S         -0.09925   0.25428
   3        3S         -0.13123   0.28154   0.34787
   4        4PX         0.00000   0.00000   0.00000   0.48240
   5        4PY         0.00000   0.00000   0.00000   0.00000   0.48240
   6        4PZ        -0.02482   0.04364   0.14163   0.00000   0.00000
   7        5PX         0.00000   0.00000   0.00000   0.33678   0.00000
   8        5PY         0.00000   0.00000   0.00000   0.00000   0.33678
   9        5PZ        -0.01347   0.02891   0.07607   0.00000   0.00000
  10        6D 0       -0.00055   0.00183  -0.00593   0.00000   0.00000
  11        6D+1        0.00000   0.00000   0.00000  -0.01192   0.00000
  12        6D-1        0.00000   0.00000   0.00000   0.00000  -0.01192
  13        6D+2        0.00000   0.00000   0.00000   0.00000   0.00000
  14        6D-2        0.00000   0.00000   0.00000   0.00000   0.00000
  15 2   O  1S          0.00040   0.00145   0.01859   0.00000   0.00000
  16        2S          0.00145  -0.00917  -0.04731   0.00000   0.00000
  17        3S          0.01859  -0.04731  -0.06319   0.00000   0.00000
  18        4PX         0.00000   0.00000   0.00000  -0.08606   0.00000
  19        4PY         0.00000   0.00000   0.00000   0.00000  -0.08606
  20        4PZ        -0.02073   0.05627  -0.01673   0.00000   0.00000
  21        5PX         0.00000   0.00000   0.00000  -0.08287   0.00000
  22        5PY         0.00000   0.00000   0.00000   0.00000  -0.08287
  23        5PZ        -0.00106   0.00907  -0.02866   0.00000   0.00000
  24        6D 0       -0.00425   0.00918   0.00327   0.00000   0.00000
  25        6D+1        0.00000   0.00000   0.00000   0.01707   0.00000
  26        6D-1        0.00000   0.00000   0.00000   0.00000   0.01707
  27        6D+2        0.00000   0.00000   0.00000   0.00000   0.00000
  28        6D-2        0.00000   0.00000   0.00000   0.00000   0.00000
                           6         7         8         9        10
   6        4PZ         0.25891
   7        5PX         0.00000   0.23622
   8        5PY         0.00000   0.00000   0.23622
   9        5PZ         0.12727   0.00000   0.00000   0.06422
  10        6D 0       -0.02022   0.00000   0.00000  -0.00941   0.00179
  11        6D+1        0.00000  -0.00738   0.00000   0.00000   0.00000
  12        6D-1        0.00000   0.00000  -0.00738   0.00000   0.00000
  13        6D+2        0.00000   0.00000   0.00000   0.00000   0.00000
  14        6D-2        0.00000   0.00000   0.00000   0.00000   0.00000
  15 2   O  1S          0.02073   0.00000   0.00000   0.00106  -0.00425
  16        2S         -0.05627   0.00000   0.00000  -0.00907   0.00918
  17        3S          0.01673   0.00000   0.00000   0.02866   0.00327
  18        4PX         0.00000  -0.08287   0.00000   0.00000   0.00000
  19        4PY         0.00000   0.00000  -0.08287   0.00000   0.00000
  20        4PZ        -0.22096   0.00000   0.00000  -0.11287   0.01743
  21        5PX         0.00000  -0.07357   0.00000   0.00000   0.00000
  22        5PY         0.00000   0.00000  -0.07357   0.00000   0.00000
  23        5PZ        -0.11287   0.00000   0.00000  -0.05875   0.00835
  24        6D 0       -0.01743   0.00000   0.00000  -0.00835   0.00158
  25        6D+1        0.00000   0.01119   0.00000   0.00000   0.00000
  26        6D-1        0.00000   0.00000   0.01119   0.00000   0.00000
  27        6D+2        0.00000   0.00000   0.00000   0.00000   0.00000
  28        6D-2        0.00000   0.00000   0.00000   0.00000   0.00000
                          11        12        13        14        15
  11        6D+1        0.00108
  12        6D-1        0.00000   0.00108
  13        6D+2        0.00000   0.00000   0.00000
  14        6D-2        0.00000   0.00000   0.00000   0.00000
  15 2   O  1S          0.00000   0.00000   0.00000   0.00000   1.04560
  16        2S          0.00000   0.00000   0.00000   0.00000  -0.09925
  17        3S          0.00000   0.00000   0.00000   0.00000  -0.13123
  18        4PX        -0.01707   0.00000   0.00000   0.00000   0.00000
  19        4PY         0.00000  -0.01707   0.00000   0.00000   0.00000
  20        4PZ         0.00000   0.00000   0.00000   0.00000   0.02482
  21        5PX        -0.01119   0.00000   0.00000   0.00000   0.00000
  22        5PY         0.00000  -0.01119   0.00000   0.00000   0.00000
  23        5PZ         0.00000   0.00000   0.00000   0.00000   0.01347
  24        6D 0        0.00000   0.00000   0.00000   0.00000  -0.00055
  25        6D+1       -0.00104   0.00000   0.00000   0.00000   0.00000
  26        6D-1        0.00000  -0.00104   0.00000   0.00000   0.00000
  27        6D+2        0.00000   0.00000   0.00000   0.00000   0.00000
  28        6D-2        0.00000   0.00000   0.00000   0.00000   0.00000
                          16        17        18        19        20
  16        2S          0.25428
  17        3S          0.28154   0.34787
  18        4PX         0.00000   0.00000   0.48240
  19        4PY         0.00000   0.00000   0.00000   0.48240
  20        4PZ        -0.04364  -0.14163   0.00000   0.00000   0.25891
  21        5PX         0.00000   0.00000   0.33678   0.00000   0.00000
  22        5PY         0.00000   0.00000   0.00000   0.33678   0.00000
  23        5PZ        -0.02891  -0.07607   0.00000   0.00000   0.12727
  24        6D 0        0.00183  -0.00593   0.00000   0.00000   0.02022
  25        6D+1        0.00000   0.00000   0.01192   0.00000   0.00000
  26        6D-1        0.00000   0.00000   0.00000   0.01192   0.00000
  27        6D+2        0.00000   0.00000   0.00000   0.00000   0.00000
  28        6D-2        0.00000   0.00000   0.00000   0.00000   0.00000
                          21        22        23        24        25
  21        5PX         0.23622
  22        5PY         0.00000   0.23622
  23        5PZ         0.00000   0.00000   0.06422
  24        6D 0        0.00000   0.00000   0.00941   0.00179
  25        6D+1        0.00738   0.00000   0.00000   0.00000   0.00108
  26        6D-1        0.00000   0.00738   0.00000   0.00000   0.00000
  27        6D+2        0.00000   0.00000   0.00000   0.00000   0.00000
  28        6D-2        0.00000   0.00000   0.00000   0.00000   0.00000
                          26        27        28
  26        6D-1        0.00108
  27        6D+2        0.00000   0.00000
  28        6D-2        0.00000   0.00000   0.00000
     Beta Density Matrix:
                           1         2         3         4         5
   1 1   O  1S          1.04560
   2        2S         -0.09925   0.25428
   3        3S         -0.13123   0.28154   0.34787
   4        4PX         0.00000   0.00000   0.00000   0.19817
   5        4PY         0.00000   0.00000   0.00000   0.00000   0.19817
   6        4PZ        -0.02482   0.04364   0.14163   0.00000   0.00000
   7        5PX         0.00000   0.00000   0.00000   0.12695   0.00000
   8        5PY         0.00000   0.00000   0.00000   0.00000   0.12695
   9        5PZ        -0.01347   0.02891   0.07607   0.00000   0.00000
  10        6D 0       -0.00055   0.00183  -0.00593   0.00000   0.00000
  11        6D+1        0.00000   0.00000   0.00000  -0.01449   0.00000
  12        6D-1        0.00000   0.00000   0.00000   0.00000  -0.01449
  13        6D+2        0.00000   0.00000   0.00000   0.00000   0.00000
  14        6D-2        0.00000   0.00000   0.00000   0.00000   0.00000
  15 2   O  1S          0.00040   0.00145   0.01859   0.00000   0.00000
  16        2S          0.00145  -0.00917  -0.04731   0.00000   0.00000
  17        3S          0.01859  -0.04731  -0.06319   0.00000   0.00000
  18        4PX         0.00000   0.00000   0.00000   0.19817   0.00000
  19        4PY         0.00000   0.00000   0.00000   0.00000   0.19817
  20        4PZ        -0.02073   0.05627  -0.01673   0.00000   0.00000
  21        5PX         0.00000   0.00000   0.00000   0.12695   0.00000
  22        5PY         0.00000   0.00000   0.00000   0.00000   0.12695
  23        5PZ        -0.00106   0.00907  -0.02866   0.00000   0.00000
  24        6D 0       -0.00425   0.00918   0.00327   0.00000   0.00000
  25        6D+1        0.00000   0.00000   0.00000   0.01449   0.00000
  26        6D-1        0.00000   0.00000   0.00000   0.00000   0.01449
  27        6D+2        0.00000   0.00000   0.00000   0.00000   0.00000
  28        6D-2        0.00000   0.00000   0.00000   0.00000   0.00000
                           6         7         8         9        10
   6        4PZ         0.25891
   7        5PX         0.00000   0.08133
   8        5PY         0.00000   0.00000   0.08133
   9        5PZ         0.12727   0.00000   0.00000   0.06422
  10        6D 0       -0.02022   0.00000   0.00000  -0.00941   0.00179
  11        6D+1        0.00000  -0.00929   0.00000   0.00000   0.00000
  12        6D-1        0.00000   0.00000  -0.00929   0.00000   0.00000
  13        6D+2        0.00000   0.00000   0.00000   0.00000   0.00000
  14        6D-2        0.00000   0.00000   0.00000   0.00000   0.00000
  15 2   O  1S          0.02073   0.00000   0.00000   0.00106  -0.00425
  16        2S         -0.05627   0.00000   0.00000  -0.00907   0.00918
  17        3S          0.01673   0.00000   0.00000   0.02866   0.00327
  18        4PX         0.00000   0.12695   0.00000   0.00000   0.00000
  19        4PY         0.00000   0.00000   0.12695   0.00000   0.00000
  20        4PZ        -0.22096   0.00000   0.00000  -0.11287   0.01743
  21        5PX         0.00000   0.08133   0.00000   0.00000   0.00000
  22        5PY         0.00000   0.00000   0.08133   0.00000   0.00000
  23        5PZ        -0.11287   0.00000   0.00000  -0.05875   0.00835
  24        6D 0       -0.01743   0.00000   0.00000  -0.00835   0.00158
  25        6D+1        0.00000   0.00929   0.00000   0.00000   0.00000
  26        6D-1        0.00000   0.00000   0.00929   0.00000   0.00000
  27        6D+2        0.00000   0.00000   0.00000   0.00000   0.00000
  28        6D-2        0.00000   0.00000   0.00000   0.00000   0.00000
                          11        12        13        14        15
  11        6D+1        0.00106
  12        6D-1        0.00000   0.00106
  13        6D+2        0.00000   0.00000   0.00000
  14        6D-2        0.00000   0.00000   0.00000   0.00000
  15 2   O  1S          0.00000   0.00000   0.00000   0.00000   1.04560
  16        2S          0.00000   0.00000   0.00000   0.00000  -0.09925
  17        3S          0.00000   0.00000   0.00000   0.00000  -0.13123
  18        4PX        -0.01449   0.00000   0.00000   0.00000   0.00000
  19        4PY         0.00000  -0.01449   0.00000   0.00000   0.00000
  20        4PZ         0.00000   0.00000   0.00000   0.00000   0.02482
  21        5PX        -0.00929   0.00000   0.00000   0.00000   0.00000
  22        5PY         0.00000  -0.00929   0.00000   0.00000   0.00000
  23        5PZ         0.00000   0.00000   0.00000   0.00000   0.01347
  24        6D 0        0.00000   0.00000   0.00000   0.00000  -0.00055
  25        6D+1       -0.00106   0.00000   0.00000   0.00000   0.00000
  26        6D-1        0.00000  -0.00106   0.00000   0.00000   0.00000
  27        6D+2        0.00000   0.00000   0.00000   0.00000   0.00000
  28        6D-2        0.00000   0.00000   0.00000   0.00000   0.00000
                          16        17        18        19        20
  16        2S          0.25428
  17        3S          0.28154   0.34787
  18        4PX         0.00000   0.00000   0.19817
  19        4PY         0.00000   0.00000   0.00000   0.19817
  20        4PZ        -0.04364  -0.14163   0.00000   0.00000   0.25891
  21        5PX         0.00000   0.00000   0.12695   0.00000   0.00000
  22        5PY         0.00000   0.00000   0.00000   0.12695   0.00000
  23        5PZ        -0.02891  -0.07607   0.00000   0.00000   0.12727
  24        6D 0        0.00183  -0.00593   0.00000   0.00000   0.02022
  25        6D+1        0.00000   0.00000   0.01449   0.00000   0.00000
  26        6D-1        0.00000   0.00000   0.00000   0.01449   0.00000
  27        6D+2        0.00000   0.00000   0.00000   0.00000   0.00000
  28        6D-2        0.00000   0.00000   0.00000   0.00000   0.00000
                          21        22        23        24        25
  21        5PX         0.08133
  22        5PY         0.00000   0.08133
  23        5PZ         0.00000   0.00000   0.06422
  24        6D 0        0.00000   0.00000   0.00941   0.00179
  25        6D+1        0.00929   0.00000   0.00000   0.00000   0.00106
  26        6D-1        0.00000   0.00929   0.00000   0.00000   0.00000
  27        6D+2        0.00000   0.00000   0.00000   0.00000   0.00000
  28        6D-2        0.00000   0.00000   0.00000   0.00000   0.00000
                          26        27        28
  26        6D-1        0.00106
  27        6D+2        0.00000   0.00000
  28        6D-2        0.00000   0.00000   0.00000
    Full Mulliken population analysis:
                           1         2         3         4         5
   1 1   O  1S          2.09121
   2        2S         -0.04470   0.50855
   3        3S         -0.04825   0.44607   0.69575
   4        4PX         0.00000   0.00000   0.00000   0.68058
   5        4PY         0.00000   0.00000   0.00000   0.00000   0.68058
   6        4PZ         0.00000   0.00000   0.00000   0.00000   0.00000
   7        5PX         0.00000   0.00000   0.00000   0.23245   0.00000
   8        5PY         0.00000   0.00000   0.00000   0.00000   0.23245
   9        5PZ         0.00000   0.00000   0.00000   0.00000   0.00000
  10        6D 0        0.00000   0.00000   0.00000   0.00000   0.00000
  11        6D+1        0.00000   0.00000   0.00000   0.00000   0.00000
  12        6D-1        0.00000   0.00000   0.00000   0.00000   0.00000
  13        6D+2        0.00000   0.00000   0.00000   0.00000   0.00000
  14        6D-2        0.00000   0.00000   0.00000   0.00000   0.00000
  15 2   O  1S          0.00000   0.00001   0.00146   0.00000   0.00000
  16        2S          0.00001  -0.00147  -0.02226   0.00000   0.00000
  17        3S          0.00146  -0.02226  -0.05681   0.00000   0.00000
  18        4PX         0.00000   0.00000   0.00000   0.00431   0.00000
  19        4PY         0.00000   0.00000   0.00000   0.00000   0.00431
  20        4PZ        -0.00039   0.01440  -0.00640   0.00000   0.00000
  21        5PX         0.00000   0.00000   0.00000   0.00682   0.00000
  22        5PY         0.00000   0.00000   0.00000   0.00000   0.00682
  23        5PZ        -0.00021   0.00839  -0.03373   0.00000   0.00000
  24        6D 0       -0.00017   0.00331   0.00079   0.00000   0.00000
  25        6D+1        0.00000   0.00000   0.00000   0.00312   0.00000
  26        6D-1        0.00000   0.00000   0.00000   0.00000   0.00312
  27        6D+2        0.00000   0.00000   0.00000   0.00000   0.00000
  28        6D-2        0.00000   0.00000   0.00000   0.00000   0.00000
                           6         7         8         9        10
   6        4PZ         0.51782
   7        5PX         0.00000   0.31755
   8        5PY         0.00000   0.00000   0.31755
   9        5PZ         0.12760   0.00000   0.00000   0.12844
  10        6D 0        0.00000   0.00000   0.00000   0.00000   0.00357
  11        6D+1        0.00000   0.00000   0.00000   0.00000   0.00000
  12        6D-1        0.00000   0.00000   0.00000   0.00000   0.00000
  13        6D+2        0.00000   0.00000   0.00000   0.00000   0.00000
  14        6D-2        0.00000   0.00000   0.00000   0.00000   0.00000
  15 2   O  1S         -0.00039   0.00000   0.00000  -0.00021  -0.00017
  16        2S          0.01440   0.00000   0.00000   0.00839   0.00331
  17        3S         -0.00640   0.00000   0.00000  -0.03373   0.00079
  18        4PX         0.00000   0.00682   0.00000   0.00000   0.00000
  19        4PY         0.00000   0.00000   0.00682   0.00000   0.00000
  20        4PZ         0.08270   0.00000   0.00000   0.04705   0.00825
  21        5PX         0.00000   0.00374   0.00000   0.00000   0.00000
  22        5PY         0.00000   0.00000   0.00374   0.00000   0.00000
  23        5PZ         0.04705   0.00000   0.00000   0.02589   0.00055
  24        6D 0        0.00825   0.00000   0.00000   0.00055   0.00079
  25        6D+1        0.00000   0.00321   0.00000   0.00000   0.00000
  26        6D-1        0.00000   0.00000   0.00321   0.00000   0.00000
  27        6D+2        0.00000   0.00000   0.00000   0.00000   0.00000
  28        6D-2        0.00000   0.00000   0.00000   0.00000   0.00000
                          11        12        13        14        15
  11        6D+1        0.00214
  12        6D-1        0.00000   0.00214
  13        6D+2        0.00000   0.00000   0.00000
  14        6D-2        0.00000   0.00000   0.00000   0.00000
  15 2   O  1S          0.00000   0.00000   0.00000   0.00000   2.09121
  16        2S          0.00000   0.00000   0.00000   0.00000  -0.04470
  17        3S          0.00000   0.00000   0.00000   0.00000  -0.04825
  18        4PX         0.00312   0.00000   0.00000   0.00000   0.00000
  19        4PY         0.00000   0.00312   0.00000   0.00000   0.00000
  20        4PZ         0.00000   0.00000   0.00000   0.00000   0.00000
  21        5PX         0.00321   0.00000   0.00000   0.00000   0.00000
  22        5PY         0.00000   0.00321   0.00000   0.00000   0.00000
  23        5PZ         0.00000   0.00000   0.00000   0.00000   0.00000
  24        6D 0        0.00000   0.00000   0.00000   0.00000   0.00000
  25        6D+1        0.00048   0.00000   0.00000   0.00000   0.00000
  26        6D-1        0.00000   0.00048   0.00000   0.00000   0.00000
  27        6D+2        0.00000   0.00000   0.00000   0.00000   0.00000
  28        6D-2        0.00000   0.00000   0.00000   0.00000   0.00000
                          16        17        18        19        20
  16        2S          0.50855
  17        3S          0.44607   0.69575
  18        4PX         0.00000   0.00000   0.68058
  19        4PY         0.00000   0.00000   0.00000   0.68058
  20        4PZ         0.00000   0.00000   0.00000   0.00000   0.51782
  21        5PX         0.00000   0.00000   0.23245   0.00000   0.00000
  22        5PY         0.00000   0.00000   0.00000   0.23245   0.00000
  23        5PZ         0.00000   0.00000   0.00000   0.00000   0.12760
  24        6D 0        0.00000   0.00000   0.00000   0.00000   0.00000
  25        6D+1        0.00000   0.00000   0.00000   0.00000   0.00000
  26        6D-1        0.00000   0.00000   0.00000   0.00000   0.00000
  27        6D+2        0.00000   0.00000   0.00000   0.00000   0.00000
  28        6D-2        0.00000   0.00000   0.00000   0.00000   0.00000
                          21        22        23        24        25
  21        5PX         0.31755
  22        5PY         0.00000   0.31755
  23        5PZ         0.00000   0.00000   0.12844
  24        6D 0        0.00000   0.00000   0.00000   0.00357
  25        6D+1        0.00000   0.00000   0.00000   0.00000   0.00214
  26        6D-1        0.00000   0.00000   0.00000   0.00000   0.00000
  27        6D+2        0.00000   0.00000   0.00000   0.00000   0.00000
  28        6D-2        0.00000   0.00000   0.00000   0.00000   0.00000
                          26        27        28
  26        6D-1        0.00214
  27        6D+2        0.00000   0.00000
  28        6D-2        0.00000   0.00000   0.00000
     Gross orbital populations:
                         Total     Alpha     Beta      Spin
   1 1   O  1S          1.99896   0.99948   0.99948   0.00000
   2        2S          0.91231   0.45616   0.45616   0.00000
   3        3S          0.97664   0.48832   0.48832   0.00000
   4        4PX         0.92728   0.63678   0.29050   0.34628
   5        4PY         0.92728   0.63678   0.29050   0.34628
   6        4PZ         0.79102   0.39551   0.39551   0.00000
   7        5PX         0.56377   0.35846   0.20531   0.15315
   8        5PY         0.56377   0.35846   0.20531   0.15315
   9        5PZ         0.30399   0.15199   0.15199   0.00000
  10        6D 0        0.01708   0.00854   0.00854   0.00000
  11        6D+1        0.00895   0.00476   0.00419   0.00057
  12        6D-1        0.00895   0.00476   0.00419   0.00057
  13        6D+2        0.00000   0.00000   0.00000   0.00000
  14        6D-2        0.00000   0.00000   0.00000   0.00000
  15 2   O  1S          1.99896   0.99948   0.99948   0.00000
  16        2S          0.91231   0.45616   0.45616   0.00000
  17        3S          0.97664   0.48832   0.48832   0.00000
  18        4PX         0.92728   0.63678   0.29050   0.34628
  19        4PY         0.92728   0.63678   0.29050   0.34628
  20        4PZ         0.79102   0.39551   0.39551   0.00000
  21        5PX         0.56377   0.35846   0.20531   0.15315
  22        5PY         0.56377   0.35846   0.20531   0.15315
  23        5PZ         0.30399   0.15199   0.15199   0.00000
  24        6D 0        0.01708   0.00854   0.00854   0.00000
  25        6D+1        0.00895   0.00476   0.00419   0.00057
  26        6D-1        0.00895   0.00476   0.00419   0.00057
  27        6D+2        0.00000   0.00000   0.00000   0.00000
  28        6D-2        0.00000   0.00000   0.00000   0.00000
          Condensed to atoms (all electrons):
               1          2
     1  O    7.837158   0.162842
     2  O    0.162842   7.837158
          Atomic-Atomic Spin Densities.
               1          2
     1  O    1.299025  -0.299025
     2  O   -0.299025   1.299025
 Mulliken charges and spin densities:
               1          2
     1  O    0.000000   1.000000
     2  O    0.000000   1.000000
 Sum of Mulliken charges =   0.00000   2.00000
 Mulliken charges and spin densities with hydrogens summed into heavy atoms:
               1          2
     1  O    0.000000   1.000000
     2  O    0.000000   1.000000
 Electronic spatial extent (au):  <R**2>=             43.6212
 Charge=              0.0000 electrons
 Dipole moment (field-independent basis, Debye):
    X=              0.0000    Y=              0.0000    Z=              0.0000  Tot=              0.0000
 Quadrupole moment (field-independent basis, Debye-Ang):
   XX=             -9.8798   YY=             -9.8798   ZZ=            -10.4484
   XY=              0.0000   XZ=              0.0000   YZ=              0.0000
 Traceless Quadrupole moment (field-independent basis, Debye-Ang):
   XX=              0.1895   YY=              0.1895   ZZ=             -0.3790
   XY=              0.0000   XZ=              0.0000   YZ=              0.0000
 Octapole moment (field-independent basis, Debye-Ang**2):
  XXX=              0.0000  YYY=              0.0000  ZZZ=              0.0000  XYY=              0.0000
  XXY=              0.0000  XXZ=              0.0000  XZZ=              0.0000  YZZ=              0.0000
  YYZ=              0.0000  XYZ=              0.0000
 Hexadecapole moment (field-independent basis, Debye-Ang**3):
 XXXX=             -6.4602 YYYY=             -6.4602 ZZZZ=            -28.0258 XXXY=              0.0000
 XXXZ=              0.0000 YYYX=              0.0000 YYYZ=              0.0000 ZZZX=              0.0000
 ZZZY=              0.0000 XXYY=             -2.1534 XXZZ=             -5.9538 YYZZ=             -5.9538
 XXYZ=              0.0000 YYXZ=              0.0000 ZZXY=              0.0000
 N-N= 2.782461435104D+01 E-N=-4.105860506512D+02  KE= 1.494427071870D+02
 Orbital energies and kinetic energies (alpha):
                                 1                 2
   1         O               -20.722850         29.213628
   2         O               -20.721840         29.216440
   3         O                -1.626668          2.881504
   4         O                -1.070935          3.309237
   5         O                -0.715257          2.688718
   6         O                -0.658578          2.203239
   7         O                -0.658578          2.203239
   8         O                -0.140892          3.005349
   9         O                -0.140892          3.005349
  10         V                 0.440969          3.313351
  11         V                 1.071743          3.998774
  12         V                 1.094241          3.600688
  13         V                 1.094241          3.600688
  14         V                 1.155455          3.018180
  15         V                 1.201123          3.253874
  16         V                 1.201123          3.253874
  17         V                 1.325599          3.711250
  18         V                 1.959255          4.016835
  19         V                 2.391533          3.804279
  20         V                 2.391533          3.804279
  21         V                 2.671399          3.992602
  22         V                 2.671399          3.992602
  23         V                 2.981400          4.316492
  24         V                 2.981400          4.316492
  25         V                 3.141866          5.207760
  26         V                 3.649821          5.066573
  27         V                 3.649821          5.066573
  28         V                 4.184518          6.111808
 Total kinetic energy from orbitals= 1.554534055347D+02
                          Isotropic Fermi Contact Couplings
        Atom                 a.u.       MegaHertz       Gauss      10(-4) cm-1
     1  O(17)              0.00000       0.00000       0.00000       0.00000
     2  O(17)              0.00000       0.00000       0.00000       0.00000
 --------------------------------------------------------
       Center         ----  Spin Dipole Couplings  ----
                      3XX-RR        3YY-RR        3ZZ-RR
 --------------------------------------------------------
     1   Atom        1.062062      1.062062     -2.124125
     2   Atom        1.062062      1.062062     -2.124125
 --------------------------------------------------------
                        XY            XZ            YZ
 --------------------------------------------------------
     1   Atom        0.000000      0.000000      0.000000
     2   Atom        0.000000      0.000000      0.000000
 --------------------------------------------------------


 ---------------------------------------------------------------------------------
              Anisotropic Spin Dipole Couplings in Principal Axis System
 ---------------------------------------------------------------------------------

       Atom             a.u.   MegaHertz   Gauss  10(-4) cm-1        Axes

              Baa    -2.1241   153.700    54.844    51.269  0.0000  0.0000  1.0000
     1 O(17)  Bbb     1.0621   -76.850   -27.422   -25.634  0.8993  0.4372  0.0000
              Bcc     1.0621   -76.850   -27.422   -25.634 -0.4372  0.8993  0.0000
 
              Baa    -2.1241   153.700    54.844    51.269  0.0000  0.0000  1.0000
     2 O(17)  Bbb     1.0621   -76.850   -27.422   -25.634 -0.4673  0.8841  0.0000
              Bcc     1.0621   -76.850   -27.422   -25.634  0.8841  0.4673  0.0000
 

 ---------------------------------------------------------------------------------

 No NMR shielding tensors so no spin-rotation constants.
 Leave Link  601 at Tue Sep 22 13:39:44 2015, MaxMem=    33554432 cpu:               0.2 elap:               0.2
 (Enter /home/gauss/gdvi01p/gdv/l9999.exe)
 Unable to Open any file for archive entry.
 1\1\GINC-MEDUSA\SP\ROHF\CC-pVDZ\O2(3)\DBWY\22-Sep-2015\0\\#p rohf/cc-p
 VDZ gfinput pop=full nosymm\\O2 cc-pVDZ\\0,3\O,0,0.,0.,0.608586\O,0,0.
 ,0.,-0.608586\\Version=ES64L-GDVRevI.01+\HF=-149.6060618\RMSD=3.540e-0
 9\Dipole=0.,0.,0.\Quadrupole=0.1409023,0.1409023,-0.2818046,0.,0.,0.\P
 G=D*H [C*(O1.O1)]\\@
 The archive entry for this job was punched.


 MEN HAVE BECOME THE TOOLS OF THEIR TOOLS... THOREAU   
 Job cpu time:       0 days  0 hours  0 minutes  0.9 seconds.
 Elapsed time:       0 days  0 hours  0 minutes  0.7 seconds.
 File lengths (MBytes):  RWF=      5 Int=      0 D2E=      0 Chk=      1 Scr=      1
 Normal termination of Gaussian DV at Tue Sep 22 13:39:44 2015.
