 Entering Gaussian System, Link 0=gdv
 Input=O2_cc-pVDZ_field.com
 Output=O2_cc-pVDZ_field.log
 Initial command:
 /home/gauss/gdvi01p/gdv/l1.exe "/home/GauScr/Gau-318.inp" -scrdir="/home/GauScr/"
 Entering Link 1 = /home/gauss/gdvi01p/gdv/l1.exe PID=       319.
  
 Copyright (c) 1988,1990,1992,1993,1995,1998,2003,2009,2014,
            Gaussian, Inc.  All Rights Reserved.
  
 This is the private, development version of
 the Gaussian(R) DV system of programs. It is based on
 the Gaussian(R) 09 system (copyright 2009, Gaussian, Inc.),
 the Gaussian(R) 03 system (copyright 2003, Gaussian, Inc.),
 the Gaussian(R) 98 system (copyright 1998, Gaussian, Inc.),
 the Gaussian(R) 94 system (copyright 1995, Gaussian, Inc.),
 the Gaussian 92(TM) system (copyright 1992, Gaussian, Inc.),
 the Gaussian 90(TM) system (copyright 1990, Gaussian, Inc.),
 the Gaussian 88(TM) system (copyright 1988, Gaussian, Inc.),
 the Gaussian 86(TM) system (copyright 1986, Carnegie Mellon
 University), and the Gaussian 82(TM) system (copyright 1983,
 Carnegie Mellon University). Gaussian is a federally registered
 trademark of Gaussian, Inc.
  
 This software contains proprietary and confidential information,
 including trade secrets, belonging to Gaussian, Inc.
  
 This software is provided under written license and may be
 used, copied, transmitted, or stored only in accord with that
 written license.
  
 The following legend is applicable only to US Government
 contracts under FAR:
  
                    RESTRICTED RIGHTS LEGEND
  
 Use, reproduction and disclosure by the US Government is
 subject to restrictions as set forth in subparagraphs (a)
 and (c) of the Commercial Computer Software - Restricted
 Rights clause in FAR 52.227-19.
  
 Gaussian, Inc.
 340 Quinnipiac St., Bldg. 40, Wallingford CT 06492
  
  
 ---------------------------------------------------------------
 Warning -- This program may not be used in any manner that
 competes with the business of Gaussian, Inc. or will provide
 assistance to any competitor of Gaussian, Inc.  The licensee
 of this program is prohibited from giving any competitor of
 Gaussian, Inc. access to this program.  By using this program,
 the user acknowledges that Gaussian, Inc. is engaged in the
 business of creating and licensing software in the field of
 computational chemistry and represents and warrants to the
 licensee that it is not a competitor of Gaussian, Inc. and that
 it will not use this program in any manner prohibited above.
 ---------------------------------------------------------------
  

 Cite this work as:
 Gaussian Development Version, Revision I.01+,
 M. J. Frisch, G. W. Trucks, H. B. Schlegel, G. E. Scuseria, 
 M. A. Robb, J. R. Cheeseman, G. Scalmani, V. Barone, B. Mennucci, 
 G. A. Petersson, H. Nakatsuji, M. Caricato, X. Li, H. P. Hratchian, 
 A. F. Izmaylov, J. Bloino, B. G. Janesko, F. Lipparini, G. Zheng, 
 J. L. Sonnenberg, W. Liang, M. Hada, M. Ehara, K. Toyota, R. Fukuda, 
 J. Hasegawa, M. Ishida, T. Nakajima, Y. Honda, O. Kitao, H. Nakai, 
 T. Vreven, J. A. Montgomery, Jr., J. E. Peralta, F. Ogliaro, 
 M. Bearpark, J. J. Heyd, E. Brothers, K. N. Kudin, V. N. Staroverov, 
 T. Keith, R. Kobayashi, J. Normand, K. Raghavachari, A. Rendell, 
 J. C. Burant, S. S. Iyengar, J. Tomasi, M. Cossi, N. Rega, 
 J. M. Millam, M. Klene, J. E. Knox, J. B. Cross, V. Bakken, 
 C. Adamo, J. Jaramillo, R. Gomperts, R. E. Stratmann, O. Yazyev, 
 A. J. Austin, R. Cammi, C. Pomelli, J. W. Ochterski, R. L. Martin, 
 K. Morokuma, V. G. Zakrzewski, G. A. Voth, P. Salvador, 
 J. J. Dannenberg, S. Dapprich, P. V. Parandekar, N. J. Mayhall, 
 A. D. Daniels, O. Farkas, J. B. Foresman, J. V. Ortiz, 
 J. Cioslowski, and D. J. Fox, Gaussian, Inc., Wallingford CT, 2010.
 
 *******************************************
 Gaussian DV:  ES64L-GDVRevI.01+ 11-Sep-2014
                 29-Sep-2015 
 *******************************************
 -----------------------------------------------------
 #p uhf/cc-pVDZ gfinput pop=full nosymm 6D Field=X-100
 -----------------------------------------------------
 1/38=1,172=1/1;
 2/12=2,15=1,17=6,18=5,40=1/2;
 3/5=16,8=2,11=2,14=1,15=-100,24=10,25=1,30=1,116=2/1,2,3;
 4//1;
 5/5=2,38=5/2;
 6/7=3,28=1/1;
 99/5=1,9=1/99;
 Leave Link    1 at Tue Sep 29 11:37:12 2015, MaxMem=           0 cpu:               0.0 elap:               0.0
 (Enter /home/gauss/gdvi01p/gdv/l101.exe)
 ----------
 O2 cc-pVDZ
 ----------
 Symbolic Z-matrix:
 Charge =  0 Multiplicity = 3
 O                     0.        0.        0.60859 
 O                     0.        0.       -0.60859 
 
 ITRead=  0  0
 MicOpt= -1 -1
 NAtoms=      2 NQM=        2 NQMF=       0 NMMI=      0 NMMIF=      0
                NMic=       0 NMicF=      0.
                    Isotopes and Nuclear Properties:
 (Nuclear quadrupole moments (NQMom) in fm**2, nuclear magnetic moments (NMagM)
  in nuclear magnetons)

  Atom         1           2
 IAtWgt=          16          16
 AtmWgt=  15.9949146  15.9949146
 NucSpn=           0           0
 AtZEff=   0.0000000   0.0000000
 NQMom=    0.0000000   0.0000000
 NMagM=    0.0000000   0.0000000
 AtZNuc=   8.0000000   8.0000000
 Leave Link  101 at Tue Sep 29 11:37:13 2015, MaxMem=    33554432 cpu:               0.1 elap:               0.1
 (Enter /home/gauss/gdvi01p/gdv/l202.exe)
                          Input orientation:                          
 ---------------------------------------------------------------------
 Center     Atomic      Atomic             Coordinates (Angstroms)
 Number     Number       Type             X           Y           Z
 ---------------------------------------------------------------------
      1          8           0        0.000000    0.000000    0.608586
      2          8           0        0.000000    0.000000   -0.608586
 ---------------------------------------------------------------------
 Symmetry turned off by external request.
 Stoichiometry    O2(3)
 Framework group  D*H[C*(O.O)]
 Deg. of freedom     1
 Full point group                 D*H     NOp   8
 Rotational constants (GHZ):      0.0000000     42.6541569     42.6541569
 Leave Link  202 at Tue Sep 29 11:37:13 2015, MaxMem=    33554432 cpu:               0.0 elap:               0.0
 (Enter /home/gauss/gdvi01p/gdv/l301.exe)
 Standard basis: CC-pVDZ (6D, 7F)
 Ernie: Thresh=  0.10000D-02 Tol=  0.10000D-05 Strict=F.
 Ernie:  4 primitive shells out of 44 were deleted.
 The following finite field(s) will be applied:
 An electric field of             -0.0100  0.0000  0.0000
 AO basis set in the form of general basis input (Overlap normalization):
      1 0
 S   7 1.00       0.000000000000
      0.1172000000D+05  0.7118644339D-03
      0.1759000000D+04  0.5485201992D-02
      0.4008000000D+03  0.2790992963D-01
      0.1137000000D+03  0.1051332075D+00
      0.3703000000D+02  0.2840024898D+00
      0.1327000000D+02  0.4516739459D+00
      0.5025000000D+01  0.2732081255D+00
 S   7 1.00       0.000000000000
      0.1172000000D+05  0.7690300460D-05
      0.4008000000D+03  0.3134845790D-03
      0.1137000000D+03 -0.2966148530D-02
      0.3703000000D+02 -0.1087535430D-01
      0.1327000000D+02 -0.1207538168D+00
      0.5025000000D+01 -0.1062752639D+00
      0.1013000000D+01  0.1095975478D+01
 S   1 1.00       0.000000000000
      0.3023000000D+00  0.1000000000D+01
 P   3 1.00       0.000000000000
      0.1770000000D+02  0.6267916628D-01
      0.3854000000D+01  0.3335365659D+00
      0.1046000000D+01  0.7412396416D+00
 P   1 1.00       0.000000000000
      0.2753000000D+00  0.1000000000D+01
 D   1 1.00       0.000000000000
      0.1185000000D+01  0.1000000000D+01
 ****
      2 0
 S   7 1.00       0.000000000000
      0.1172000000D+05  0.7118644339D-03
      0.1759000000D+04  0.5485201992D-02
      0.4008000000D+03  0.2790992963D-01
      0.1137000000D+03  0.1051332075D+00
      0.3703000000D+02  0.2840024898D+00
      0.1327000000D+02  0.4516739459D+00
      0.5025000000D+01  0.2732081255D+00
 S   7 1.00       0.000000000000
      0.1172000000D+05  0.7690300460D-05
      0.4008000000D+03  0.3134845790D-03
      0.1137000000D+03 -0.2966148530D-02
      0.3703000000D+02 -0.1087535430D-01
      0.1327000000D+02 -0.1207538168D+00
      0.5025000000D+01 -0.1062752639D+00
      0.1013000000D+01  0.1095975478D+01
 S   1 1.00       0.000000000000
      0.3023000000D+00  0.1000000000D+01
 P   3 1.00       0.000000000000
      0.1770000000D+02  0.6267916628D-01
      0.3854000000D+01  0.3335365659D+00
      0.1046000000D+01  0.7412396416D+00
 P   1 1.00       0.000000000000
      0.2753000000D+00  0.1000000000D+01
 D   1 1.00       0.000000000000
      0.1185000000D+01  0.1000000000D+01
 ****

    30 basis functions,    66 primitive gaussians,    30 cartesian basis functions
     9 alpha electrons        7 beta electrons
       nuclear repulsion energy        27.8246143510 Hartrees.
 IExCor=    0 DFT=F Ex=HF Corr=None ExCW=0 ScaHFX=  1.000000
 ScaDFX=  1.000000  1.000000  1.000000  1.000000 ScalE2=  1.000000  1.000000
 IRadAn=      0 IRanWt=     -1 IRanGd=            0 ICorTp=0 IEmpDi=  4
 NAtoms=    2 NActive=    2 NUniq=    2 SFac= 1.00D+00 NAtFMM=   60 NAOKFM=F Big=F
 Integral buffers will be    131072 words long.
 Raffenetti 2 integral format.
 Two-electron integral symmetry is turned off.
 Leave Link  301 at Tue Sep 29 11:37:13 2015, MaxMem=    33554432 cpu:               0.1 elap:               0.0
 (Enter /home/gauss/gdvi01p/gdv/l302.exe)
 NPDir=0 NMtPBC=     1 NCelOv=     1 NCel=       1 NClECP=     1 NCelD=      1
         NCelK=      1 NCelE2=     1 NClLst=     1 CellRange=     0.0.
 One-electron integrals computed using PRISM.
 One-electron integral symmetry used in STVInt
 NBasis=    30 RedAO= T EigKep=  1.51D-02  NBF=    30
 NBsUse=    30 1.00D-06 EigRej= -1.00D+00 NBFU=    30
 Leave Link  302 at Tue Sep 29 11:37:13 2015, MaxMem=    33554432 cpu:               0.1 elap:               0.1
 (Enter /home/gauss/gdvi01p/gdv/l303.exe)
 DipDrv:  MaxL=1.
 The nuclear repulsion energy is now        27.8246143510 hartrees.
 Leave Link  303 at Tue Sep 29 11:37:13 2015, MaxMem=    33554432 cpu:               0.0 elap:               0.0
 (Enter /home/gauss/gdvi01p/gdv/l401.exe)
 ExpMin= 2.75D-01 ExpMax= 1.17D+04 ExpMxC= 4.01D+02 IAcc=1 IRadAn=         1 AccDes= 0.00D+00
 Harris functional with IExCor=  205 and IRadAn=       1 diagonalized for initial guess.
 HarFok:  IExCor=  205 AccDes= 0.00D+00 IRadAn=         1 IDoV= 1 UseB2=F ITyADJ=14
 ICtDFT=  3500011 ScaDFX=  1.000000  1.000000  1.000000  1.000000
 FoFCou: FMM=F IPFlag=           0 FMFlag=      100000 FMFlg1=           0
         NFxFlg=           0 DoJE=T BraDBF=F KetDBF=T FulRan=T
         wScrn=  0.000000 ICntrl=       500 IOpCl=  0 I1Cent=   200000004 NGrid=           0
         NMat0=    1 NMatS0=      1 NMatT0=    0 NMatD0=    1 NMtDS0=    0 NMtDT0=    0
 Symmetry not used in FoFCou.
 Harris En= -149.559112467874    
 JPrj=0 DoOrth=F DoCkMO=F.
 Initial guess <Sx>= 0.0000 <Sy>= 0.0000 <Sz>= 1.0000 <S**2>= 2.0000 S= 1.0000
 Leave Link  401 at Tue Sep 29 11:37:13 2015, MaxMem=    33554432 cpu:               0.1 elap:               0.1
 (Enter /home/gauss/gdvi01p/gdv/l502.exe)
 Keep R1 and R2 ints in memory in canonical form, NReq=1052271.
 FoFCou: FMM=F IPFlag=           0 FMFlag=           0 FMFlg1=           0
         NFxFlg=           0 DoJE=F BraDBF=F KetDBF=F FulRan=T
         wScrn=  0.000000 ICntrl=       600 IOpCl=  0 I1Cent=           0 NGrid=           0
         NMat0=    1 NMatS0=    465 NMatT0=    0 NMatD0=    1 NMtDS0=    0 NMtDT0=    0
 Symmetry not used in FoFCou.
 Two-electron integral symmetry not used.
 UHF open shell SCF:
 Using DIIS extrapolation, IDIIS=  1040.
 NGot=    33554432 LenX=    33335390 LenY=    33334049
 Requested convergence on RMS density matrix=1.00D-08 within 128 cycles.
 Requested convergence on MAX density matrix=1.00D-06.
 Requested convergence on             energy=1.00D-06.
 No special actions if energy rises.

 Cycle   1  Pass 1  IDiag  1:
 E= -149.588930843669    
 DIIS: error= 9.08D-02 at cycle   1 NSaved=   1.
 NSaved= 1 IEnMin= 1 EnMin= -149.588930843669     IErMin= 1 ErrMin= 9.08D-02
 ErrMax= 9.08D-02  0.00D+00 EMaxC= 1.00D-01 BMatC= 5.05D-01 BMatP= 5.05D-01
 IDIUse=3 WtCom= 9.19D-02 WtEn= 9.08D-01
 Coeff-Com:  0.100D+01
 Coeff-En:   0.100D+01
 Coeff:      0.100D+01
 Gap=     0.957 Goal=   None    Shift=    0.000
 Gap=     0.686 Goal=   None    Shift=    0.000
 GapD=    0.686 DampG=2.000 DampE=0.500 DampFc=1.0000 IDamp=-1.
 RMSDP=4.00D-03 MaxDP=2.95D-02              OVMax= 5.30D-02

 Cycle   2  Pass 1  IDiag  1:
 E= -149.624115934292     Delta-E=       -0.035185090623 Rises=F Damp=F
 DIIS: error= 1.33D-02 at cycle   2 NSaved=   2.
 NSaved= 2 IEnMin= 2 EnMin= -149.624115934292     IErMin= 2 ErrMin= 1.33D-02
 ErrMax= 1.33D-02  0.00D+00 EMaxC= 1.00D-01 BMatC= 1.02D-02 BMatP= 5.05D-01
 IDIUse=3 WtCom= 8.67D-01 WtEn= 1.33D-01
 Coeff-Com: -0.627D-01 0.106D+01
 Coeff-En:   0.000D+00 0.100D+01
 Coeff:     -0.543D-01 0.105D+01
 Gap=     0.963 Goal=   None    Shift=    0.000
 Gap=     0.677 Goal=   None    Shift=    0.000
 RMSDP=1.45D-03 MaxDP=1.17D-02 DE=-3.52D-02 OVMax= 1.67D-02

 Cycle   3  Pass 1  IDiag  1:
 E= -149.627298674301     Delta-E=       -0.003182740010 Rises=F Damp=F
 DIIS: error= 4.94D-03 at cycle   3 NSaved=   3.
 NSaved= 3 IEnMin= 3 EnMin= -149.627298674301     IErMin= 3 ErrMin= 4.94D-03
 ErrMax= 4.94D-03  0.00D+00 EMaxC= 1.00D-01 BMatC= 1.43D-03 BMatP= 1.02D-02
 IDIUse=3 WtCom= 9.51D-01 WtEn= 4.94D-02
 Coeff-Com:  0.761D-02-0.394D+00 0.139D+01
 Coeff-En:   0.000D+00 0.000D+00 0.100D+01
 Coeff:      0.723D-02-0.374D+00 0.137D+01
 Gap=     0.968 Goal=   None    Shift=    0.000
 Gap=     0.679 Goal=   None    Shift=    0.000
 RMSDP=8.01D-04 MaxDP=7.50D-03 DE=-3.18D-03 OVMax= 8.23D-03

 Cycle   4  Pass 1  IDiag  1:
 E= -149.627917635536     Delta-E=       -0.000618961235 Rises=F Damp=F
 DIIS: error= 1.19D-03 at cycle   4 NSaved=   4.
 NSaved= 4 IEnMin= 4 EnMin= -149.627917635536     IErMin= 4 ErrMin= 1.19D-03
 ErrMax= 1.19D-03  0.00D+00 EMaxC= 1.00D-01 BMatC= 1.01D-04 BMatP= 1.43D-03
 IDIUse=3 WtCom= 9.88D-01 WtEn= 1.19D-02
 Coeff-Com:  0.503D-02-0.439D-01-0.201D+00 0.124D+01
 Coeff-En:   0.000D+00 0.000D+00 0.000D+00 0.100D+01
 Coeff:      0.498D-02-0.434D-01-0.199D+00 0.124D+01
 Gap=     0.969 Goal=   None    Shift=    0.000
 Gap=     0.679 Goal=   None    Shift=    0.000
 RMSDP=2.59D-04 MaxDP=2.19D-03 DE=-6.19D-04 OVMax= 2.75D-03

 Cycle   5  Pass 1  IDiag  1:
 E= -149.627962779517     Delta-E=       -0.000045143980 Rises=F Damp=F
 DIIS: error= 1.41D-04 at cycle   5 NSaved=   5.
 NSaved= 5 IEnMin= 5 EnMin= -149.627962779517     IErMin= 5 ErrMin= 1.41D-04
 ErrMax= 1.41D-04  0.00D+00 EMaxC= 1.00D-01 BMatC= 2.25D-06 BMatP= 1.01D-04
 IDIUse=3 WtCom= 9.99D-01 WtEn= 1.41D-03
 Coeff-Com: -0.818D-03 0.164D-01-0.284D-01-0.108D+00 0.112D+01
 Coeff-En:   0.000D+00 0.000D+00 0.000D+00 0.000D+00 0.100D+01
 Coeff:     -0.817D-03 0.163D-01-0.284D-01-0.108D+00 0.112D+01
 Gap=     0.969 Goal=   None    Shift=    0.000
 Gap=     0.678 Goal=   None    Shift=    0.000
 RMSDP=3.41D-05 MaxDP=3.34D-04 DE=-4.51D-05 OVMax= 3.41D-04

 Cycle   6  Pass 1  IDiag  1:
 E= -149.627963527610     Delta-E=       -0.000000748093 Rises=F Damp=F
 DIIS: error= 3.93D-05 at cycle   6 NSaved=   6.
 NSaved= 6 IEnMin= 6 EnMin= -149.627963527610     IErMin= 6 ErrMin= 3.93D-05
 ErrMax= 3.93D-05  0.00D+00 EMaxC= 1.00D-01 BMatC= 1.20D-07 BMatP= 2.25D-06
 IDIUse=1 WtCom= 1.00D+00 WtEn= 0.00D+00
 Coeff-Com: -0.279D-03 0.488D-02 0.534D-02-0.793D-01 0.146D+00 0.923D+00
 Coeff:     -0.279D-03 0.488D-02 0.534D-02-0.793D-01 0.146D+00 0.923D+00
 Gap=     0.969 Goal=   None    Shift=    0.000
 Gap=     0.678 Goal=   None    Shift=    0.000
 RMSDP=5.83D-06 MaxDP=6.82D-05 DE=-7.48D-07 OVMax= 8.16D-05

 Cycle   7  Pass 1  IDiag  1:
 E= -149.627963554349     Delta-E=       -0.000000026740 Rises=F Damp=F
 DIIS: error= 5.57D-06 at cycle   7 NSaved=   7.
 NSaved= 7 IEnMin= 7 EnMin= -149.627963554349     IErMin= 7 ErrMin= 5.57D-06
 ErrMax= 5.57D-06  0.00D+00 EMaxC= 1.00D-01 BMatC= 1.80D-09 BMatP= 1.20D-07
 IDIUse=1 WtCom= 1.00D+00 WtEn= 0.00D+00
 Coeff-Com:  0.967D-04-0.179D-02-0.179D-02 0.291D-01-0.639D-01-0.321D+00
 Coeff-Com:  0.136D+01
 Coeff:      0.967D-04-0.179D-02-0.179D-02 0.291D-01-0.639D-01-0.321D+00
 Coeff:      0.136D+01
 Gap=     0.969 Goal=   None    Shift=    0.000
 Gap=     0.678 Goal=   None    Shift=    0.000
 RMSDP=1.48D-06 MaxDP=1.53D-05 DE=-2.67D-08 OVMax= 1.65D-05

 Cycle   8  Pass 1  IDiag  1:
 E= -149.627963555240     Delta-E=       -0.000000000891 Rises=F Damp=F
 DIIS: error= 2.02D-06 at cycle   8 NSaved=   8.
 NSaved= 8 IEnMin= 8 EnMin= -149.627963555240     IErMin= 8 ErrMin= 2.02D-06
 ErrMax= 2.02D-06  0.00D+00 EMaxC= 1.00D-01 BMatC= 1.28D-10 BMatP= 1.80D-09
 IDIUse=1 WtCom= 1.00D+00 WtEn= 0.00D+00
 Coeff-Com: -0.419D-04 0.798D-03 0.780D-03-0.129D-01 0.288D-01 0.144D+00
 Coeff-Com: -0.731D+00 0.157D+01
 Coeff:     -0.419D-04 0.798D-03 0.780D-03-0.129D-01 0.288D-01 0.144D+00
 Coeff:     -0.731D+00 0.157D+01
 Gap=     0.969 Goal=   None    Shift=    0.000
 Gap=     0.678 Goal=   None    Shift=    0.000
 RMSDP=4.78D-07 MaxDP=4.09D-06 DE=-8.91D-10 OVMax= 8.99D-06

 Cycle   9  Pass 1  IDiag  1:
 E= -149.627963555334     Delta-E=       -0.000000000093 Rises=F Damp=F
 DIIS: error= 6.77D-07 at cycle   9 NSaved=   9.
 NSaved= 9 IEnMin= 9 EnMin= -149.627963555334     IErMin= 9 ErrMin= 6.77D-07
 ErrMax= 6.77D-07  0.00D+00 EMaxC= 1.00D-01 BMatC= 1.13D-11 BMatP= 1.28D-10
 IDIUse=1 WtCom= 1.00D+00 WtEn= 0.00D+00
 Coeff-Com:  0.123D-04-0.244D-03-0.213D-03 0.382D-02-0.851D-02-0.441D-01
 Coeff-Com:  0.246D+00-0.785D+00 0.159D+01
 Coeff:      0.123D-04-0.244D-03-0.213D-03 0.382D-02-0.851D-02-0.441D-01
 Coeff:      0.246D+00-0.785D+00 0.159D+01
 Gap=     0.969 Goal=   None    Shift=    0.000
 Gap=     0.678 Goal=   None    Shift=    0.000
 RMSDP=1.85D-07 MaxDP=1.57D-06 DE=-9.33D-11 OVMax= 3.68D-06

 Cycle  10  Pass 1  IDiag  1:
 E= -149.627963555343     Delta-E=       -0.000000000010 Rises=F Damp=F
 DIIS: error= 1.41D-07 at cycle  10 NSaved=  10.
 NSaved=10 IEnMin=10 EnMin= -149.627963555343     IErMin=10 ErrMin= 1.41D-07
 ErrMax= 1.41D-07  0.00D+00 EMaxC= 1.00D-01 BMatC= 6.23D-13 BMatP= 1.13D-11
 IDIUse=1 WtCom= 1.00D+00 WtEn= 0.00D+00
 Coeff-Com: -0.164D-05 0.363D-04 0.243D-04-0.529D-03 0.114D-02 0.672D-02
 Coeff-Com: -0.418D-01 0.186D+00-0.563D+00 0.141D+01
 Coeff:     -0.164D-05 0.363D-04 0.243D-04-0.529D-03 0.114D-02 0.672D-02
 Coeff:     -0.418D-01 0.186D+00-0.563D+00 0.141D+01
 Gap=     0.969 Goal=   None    Shift=    0.000
 Gap=     0.678 Goal=   None    Shift=    0.000
 RMSDP=3.79D-08 MaxDP=2.75D-07 DE=-9.69D-12 OVMax= 7.24D-07

 Cycle  11  Pass 1  IDiag  1:
 E= -149.627963555344     Delta-E=        0.000000000000 Rises=F Damp=F
 DIIS: error= 3.74D-08 at cycle  11 NSaved=  11.
 NSaved=11 IEnMin=11 EnMin= -149.627963555344     IErMin=11 ErrMin= 3.74D-08
 ErrMax= 3.74D-08  0.00D+00 EMaxC= 1.00D-01 BMatC= 6.54D-14 BMatP= 6.23D-13
 IDIUse=1 WtCom= 1.00D+00 WtEn= 0.00D+00
 Coeff-Com: -0.827D-08-0.171D-05 0.196D-05 0.731D-05 0.999D-05-0.422D-03
 Coeff-Com:  0.402D-02-0.385D-01 0.156D+00-0.704D+00 0.158D+01
 Coeff:     -0.827D-08-0.171D-05 0.196D-05 0.731D-05 0.999D-05-0.422D-03
 Coeff:      0.402D-02-0.385D-01 0.156D+00-0.704D+00 0.158D+01
 Gap=     0.969 Goal=   None    Shift=    0.000
 Gap=     0.678 Goal=   None    Shift=    0.000
 RMSDP=1.30D-08 MaxDP=9.28D-08 DE=-4.26D-13 OVMax= 2.42D-07

 Cycle  12  Pass 1  IDiag  1:
 E= -149.627963555344     Delta-E=        0.000000000000 Rises=F Damp=F
 DIIS: error= 9.45D-09 at cycle  12 NSaved=  12.
 NSaved=12 IEnMin=12 EnMin= -149.627963555344     IErMin=12 ErrMin= 9.45D-09
 ErrMax= 9.45D-09  0.00D+00 EMaxC= 1.00D-01 BMatC= 3.03D-15 BMatP= 6.54D-14
 IDIUse=1 WtCom= 1.00D+00 WtEn= 0.00D+00
 Coeff-Com:  0.206D-06-0.430D-05-0.319D-05 0.645D-04-0.141D-03-0.777D-03
 Coeff-Com:  0.462D-02-0.165D-01 0.462D-01-0.750D-01-0.128D+00 0.117D+01
 Coeff:      0.206D-06-0.430D-05-0.319D-05 0.645D-04-0.141D-03-0.777D-03
 Coeff:      0.462D-02-0.165D-01 0.462D-01-0.750D-01-0.128D+00 0.117D+01
 Gap=     0.969 Goal=   None    Shift=    0.000
 Gap=     0.678 Goal=   None    Shift=    0.000
 RMSDP=1.61D-09 MaxDP=1.18D-08 DE=-1.14D-13 OVMax= 3.57D-08

 SCF Done:  E(UHF) =  -149.627963555     A.U. after   12 cycles
            NFock= 12  Conv=0.16D-08     -V/T= 2.0014
 <Sx>= 0.0000 <Sy>= 0.0000 <Sz>= 1.0000 <S**2>= 2.0336 S= 1.0112
 <L.S>= 0.000000000000E+00
 KE= 1.494118550453D+02 PE=-4.105570376911D+02 EE= 8.369260473946D+01
 Annihilation of the first spin contaminant:
 S**2 before annihilation     2.0336,   after     2.0006
 Leave Link  502 at Tue Sep 29 11:37:13 2015, MaxMem=    33554432 cpu:               0.1 elap:               0.1
 (Enter /home/gauss/gdvi01p/gdv/l601.exe)
 Copying SCF densities to generalized density rwf, IOpCl= 1 IROHF=0.

 **********************************************************************

            Population analysis using the SCF density.

 **********************************************************************

 Alpha  occ. eigenvalues --  -20.75358 -20.75293  -1.71049  -1.20528  -0.83432
 Alpha  occ. eigenvalues --   -0.83432  -0.75541  -0.55350  -0.55348
 Alpha virt. eigenvalues --    0.41582   1.05321   1.05387   1.05708   1.13338
 Alpha virt. eigenvalues --    1.16384   1.16395   1.17071   1.81702   2.36949
 Alpha virt. eigenvalues --    2.36950   2.63120   2.63120   2.93058   2.93058
 Alpha virt. eigenvalues --    3.11381   3.62423   3.62423   4.16593   5.39284
 Alpha virt. eigenvalues --    5.95946
  Beta  occ. eigenvalues --  -20.69983 -20.69868  -1.57865  -0.99768  -0.69575
  Beta  occ. eigenvalues --   -0.56807  -0.56799
  Beta virt. eigenvalues --    0.11048   0.11051   0.49319   1.08675   1.16643
  Beta virt. eigenvalues --    1.16869   1.17637   1.18302   1.28976   1.28979
  Beta virt. eigenvalues --    1.85821   2.44244   2.44245   2.74934   2.74934
  Beta virt. eigenvalues --    3.07871   3.07871   3.18408   3.70135   3.70135
  Beta virt. eigenvalues --    4.21235   5.44979   6.01369
     Alpha Molecular Orbital Coefficients:
                           1         2         3         4         5
                           O         O         O         O         O
     Eigenvalues --   -20.75358 -20.75293  -1.71049  -1.20528  -0.83432
   1 1   O  1S          0.70446   0.70457  -0.15276  -0.16395   0.00005
   2        2S          0.01309   0.01279   0.34998   0.37986   0.00299
   3        3S         -0.00032  -0.00173   0.25744   0.47528  -0.00545
   4        4PX        -0.00001  -0.00001  -0.00112  -0.00155   0.48097
   5        4PY         0.00000   0.00000   0.00000   0.00000   0.00000
   6        4PZ        -0.00123  -0.00101  -0.14398   0.12563  -0.00612
   7        5PX         0.00000   0.00000  -0.00174  -0.00382   0.25309
   8        5PY         0.00000   0.00000   0.00000   0.00000   0.00000
   9        5PZ         0.00055   0.00099  -0.03448   0.02314  -0.00254
  10        6XX        -0.00122  -0.00111  -0.00242   0.00636  -0.00037
  11        6YY        -0.00122  -0.00111  -0.00243   0.00635   0.00084
  12        6ZZ        -0.00187  -0.00134   0.02390  -0.02279   0.00159
  13        6XY         0.00000   0.00000   0.00000   0.00000   0.00000
  14        6XZ         0.00000   0.00000   0.00019  -0.00005  -0.02459
  15        6YZ         0.00000   0.00000   0.00000   0.00000   0.00000
  16 2   O  1S          0.70446  -0.70457  -0.15276   0.16395   0.00005
  17        2S          0.01309  -0.01279   0.34998  -0.37986   0.00299
  18        3S         -0.00032   0.00173   0.25744  -0.47528  -0.00545
  19        4PX        -0.00001   0.00001  -0.00112   0.00155   0.48097
  20        4PY         0.00000   0.00000   0.00000   0.00000   0.00000
  21        4PZ         0.00123  -0.00101   0.14398   0.12563   0.00612
  22        5PX         0.00000   0.00000  -0.00174   0.00382   0.25309
  23        5PY         0.00000   0.00000   0.00000   0.00000   0.00000
  24        5PZ        -0.00055   0.00099   0.03448   0.02314   0.00254
  25        6XX        -0.00122   0.00111  -0.00242  -0.00636  -0.00037
  26        6YY        -0.00122   0.00111  -0.00243  -0.00635   0.00084
  27        6ZZ        -0.00187   0.00134   0.02390   0.02279   0.00159
  28        6XY         0.00000   0.00000   0.00000   0.00000   0.00000
  29        6XZ         0.00000   0.00000  -0.00019  -0.00005   0.02459
  30        6YZ         0.00000   0.00000   0.00000   0.00000   0.00000
                           6         7         8         9        10
                           O         O         O         O         V
     Eigenvalues --    -0.83432  -0.75541  -0.55350  -0.55348   0.41582
   1 1   O  1S          0.00000  -0.05243   0.00000  -0.00068  -0.09262
   2        2S          0.00000   0.10205   0.00000   0.00446   0.18347
   3        3S          0.00000   0.26040   0.00000  -0.00382   1.13646
   4        4PX         0.00000   0.00642   0.00000   0.54130  -0.00190
   5        4PY         0.48102   0.00000   0.54131   0.00000   0.00000
   6        4PZ         0.00000   0.47244   0.00000   0.00195  -0.43333
   7        5PX         0.00000   0.00201   0.00000   0.37975   0.00351
   8        5PY         0.25309   0.00000   0.37975   0.00000   0.00000
   9        5PZ         0.00000   0.23840   0.00000   0.00130  -1.13190
  10        6XX         0.00000   0.00854   0.00000  -0.00028   0.00482
  11        6YY         0.00000   0.00856   0.00000   0.00091   0.00482
  12        6ZZ         0.00000  -0.04513   0.00000   0.00066  -0.02420
  13        6XY        -0.00070   0.00000  -0.00069   0.00000   0.00000
  14        6XZ         0.00000  -0.00094   0.00000   0.00506   0.00051
  15        6YZ        -0.02460   0.00000   0.00506   0.00000   0.00000
  16 2   O  1S          0.00000  -0.05243   0.00000   0.00068   0.09262
  17        2S          0.00000   0.10205   0.00000  -0.00446  -0.18347
  18        3S          0.00000   0.26040   0.00000   0.00382  -1.13646
  19        4PX         0.00000   0.00642   0.00000  -0.54130   0.00190
  20        4PY         0.48102   0.00000  -0.54131   0.00000   0.00000
  21        4PZ         0.00000  -0.47244   0.00000   0.00195  -0.43333
  22        5PX         0.00000   0.00201   0.00000  -0.37975  -0.00351
  23        5PY         0.25309   0.00000  -0.37975   0.00000   0.00000
  24        5PZ         0.00000  -0.23840   0.00000   0.00130  -1.13190
  25        6XX         0.00000   0.00854   0.00000   0.00028  -0.00482
  26        6YY         0.00000   0.00856   0.00000  -0.00091  -0.00482
  27        6ZZ         0.00000  -0.04513   0.00000  -0.00066   0.02420
  28        6XY        -0.00070   0.00000   0.00069   0.00000   0.00000
  29        6XZ         0.00000   0.00094   0.00000   0.00506   0.00051
  30        6YZ         0.02460   0.00000   0.00506   0.00000   0.00000
                          11        12        13        14        15
                           V         V         V         V         V
     Eigenvalues --     1.05321   1.05387   1.05708   1.13338   1.16384
   1 1   O  1S         -0.00073   0.00000   0.01202   0.00748   0.00000
   2        2S         -0.07307   0.00000  -0.05844  -0.63875   0.00000
   3        3S          0.09713   0.00000  -0.78003   0.97326   0.00000
   4        4PX         0.65460   0.00000   0.02557  -0.04321   0.00000
   5        4PY         0.00000   0.65681   0.00000   0.00000  -0.62651
   6        4PZ        -0.00840   0.00000  -0.68207  -0.42641   0.00000
   7        5PX        -0.63483   0.00000  -0.04068   0.04329   0.00000
   8        5PY         0.00000  -0.63717   0.00000   0.00000   1.05872
   9        5PZ         0.00475   0.00000   1.27070   0.54389   0.00000
  10        6XX        -0.01365   0.00000   0.00439  -0.14067   0.00000
  11        6YY        -0.01438   0.00000   0.00437  -0.14061   0.00000
  12        6ZZ        -0.02145   0.00000  -0.13047  -0.10843   0.00000
  13        6XY         0.00000   0.00042   0.00000   0.00000  -0.00039
  14        6XZ        -0.03289   0.00000  -0.00007   0.00161   0.00000
  15        6YZ         0.00000  -0.03299   0.00000   0.00000   0.01216
  16 2   O  1S         -0.00073   0.00000  -0.01202   0.00748   0.00000
  17        2S         -0.07307   0.00000   0.05844  -0.63875   0.00000
  18        3S          0.09713   0.00000   0.78003   0.97326   0.00000
  19        4PX         0.65460   0.00000  -0.02557  -0.04321   0.00000
  20        4PY         0.00000   0.65681   0.00000   0.00000   0.62651
  21        4PZ         0.00840   0.00000  -0.68207   0.42641   0.00000
  22        5PX        -0.63483   0.00000   0.04068   0.04329   0.00000
  23        5PY         0.00000  -0.63717   0.00000   0.00000  -1.05872
  24        5PZ        -0.00475   0.00000   1.27070  -0.54389   0.00000
  25        6XX        -0.01365   0.00000  -0.00439  -0.14067   0.00000
  26        6YY        -0.01438   0.00000  -0.00437  -0.14061   0.00000
  27        6ZZ        -0.02145   0.00000   0.13047  -0.10843   0.00000
  28        6XY         0.00000   0.00042   0.00000   0.00000   0.00039
  29        6XZ         0.03289   0.00000  -0.00007  -0.00161   0.00000
  30        6YZ         0.00000   0.03299   0.00000   0.00000   0.01216
                          16        17        18        19        20
                           V         V         V         V         V
     Eigenvalues --     1.16395   1.17071   1.81702   2.36949   2.36950
   1 1   O  1S          0.00139  -0.02474  -0.06542   0.00000  -0.00001
   2        2S          0.00908  -0.59168  -1.21580   0.00000  -0.00028
   3        3S         -0.07260   0.61382   3.72003   0.00000   0.00080
   4        4PX        -0.62598  -0.03217  -0.00506   0.00000   0.07757
   5        4PY         0.00000   0.00000   0.00000   0.07757   0.00000
   6        4PZ        -0.02588   0.40283   0.09228   0.00000   0.00010
   7        5PX         1.05787   0.03308   0.01104   0.00000   0.03375
   8        5PY         0.00000   0.00000   0.00000   0.03375   0.00000
   9        5PZ         0.07139  -0.61364  -1.72022   0.00000   0.00092
  10        6XX         0.00270  -0.06685  -0.18694   0.00000  -0.00079
  11        6YY         0.00337  -0.06680  -0.18692   0.00000  -0.00013
  12        6ZZ        -0.00244  -0.27368  -0.20769   0.00000   0.00056
  13        6XY         0.00000   0.00000   0.00000  -0.00038   0.00000
  14        6XZ         0.01216   0.00212   0.00073   0.00000   0.64109
  15        6YZ         0.00000   0.00000   0.00000   0.64109   0.00000
  16 2   O  1S         -0.00139  -0.02474   0.06542   0.00000  -0.00001
  17        2S         -0.00908  -0.59168   1.21580   0.00000  -0.00028
  18        3S          0.07260   0.61382  -3.72003   0.00000   0.00080
  19        4PX         0.62598  -0.03217   0.00506   0.00000   0.07757
  20        4PY         0.00000   0.00000   0.00000   0.07757   0.00000
  21        4PZ        -0.02588  -0.40283   0.09228   0.00000  -0.00010
  22        5PX        -1.05787   0.03308  -0.01104   0.00000   0.03375
  23        5PY         0.00000   0.00000   0.00000   0.03375   0.00000
  24        5PZ         0.07139   0.61364  -1.72022   0.00000  -0.00092
  25        6XX        -0.00270  -0.06685   0.18694   0.00000  -0.00079
  26        6YY        -0.00337  -0.06680   0.18692   0.00000  -0.00013
  27        6ZZ         0.00244  -0.27368   0.20769   0.00000   0.00056
  28        6XY         0.00000   0.00000   0.00000  -0.00038   0.00000
  29        6XZ         0.01216  -0.00212   0.00073   0.00000  -0.64109
  30        6YZ         0.00000   0.00000   0.00000  -0.64109   0.00000
                          21        22        23        24        25
                           V         V         V         V         V
     Eigenvalues --     2.63120   2.63120   2.93058   2.93058   3.11381
   1 1   O  1S          0.00000   0.00000   0.00000   0.00000   0.00165
   2        2S          0.00000   0.00001   0.00000   0.00001  -0.34233
   3        3S          0.00000  -0.00001   0.00000  -0.00002   0.21158
   4        4PX         0.00000  -0.00012   0.00000  -0.00019  -0.00067
   5        4PY         0.00012   0.00000   0.00019   0.00000   0.00000
   6        4PZ         0.00000   0.00000   0.00000   0.00000   0.35078
   7        5PX         0.00000  -0.00066   0.00000  -0.00078   0.00043
   8        5PY         0.00066   0.00000   0.00078   0.00000   0.00000
   9        5PZ         0.00000   0.00000   0.00000   0.00001  -0.30004
  10        6XX         0.00013  -0.59947   0.00000  -0.62615  -0.36587
  11        6YY        -0.00013   0.59947   0.00000   0.62615  -0.36587
  12        6ZZ         0.00000   0.00000   0.00000   0.00000   0.60746
  13        6XY         0.69221   0.00015   0.72301   0.00000   0.00000
  14        6XZ         0.00000  -0.00035   0.00000  -0.00047  -0.00055
  15        6YZ         0.00035   0.00000   0.00047   0.00000   0.00000
  16 2   O  1S          0.00000   0.00000   0.00000   0.00000   0.00165
  17        2S          0.00000   0.00001   0.00000  -0.00001  -0.34233
  18        3S          0.00000  -0.00001   0.00000   0.00002   0.21158
  19        4PX         0.00000  -0.00012   0.00000   0.00019  -0.00067
  20        4PY         0.00012   0.00000  -0.00019   0.00000   0.00000
  21        4PZ         0.00000   0.00000   0.00000   0.00000  -0.35078
  22        5PX         0.00000  -0.00066   0.00000   0.00078   0.00043
  23        5PY         0.00066   0.00000  -0.00078   0.00000   0.00000
  24        5PZ         0.00000   0.00000   0.00000   0.00001   0.30004
  25        6XX         0.00013  -0.59947   0.00000   0.62615  -0.36587
  26        6YY        -0.00013   0.59947   0.00000  -0.62615  -0.36587
  27        6ZZ         0.00000   0.00000   0.00000   0.00000   0.60746
  28        6XY         0.69221   0.00015  -0.72301   0.00000   0.00000
  29        6XZ         0.00000   0.00035   0.00000  -0.00047   0.00055
  30        6YZ        -0.00035   0.00000   0.00047   0.00000   0.00000
                          26        27        28        29        30
                           V         V         V         V         V
     Eigenvalues --     3.62423   3.62423   4.16593   5.39284   5.95946
   1 1   O  1S          0.00000  -0.00004  -0.08864  -0.28590  -0.31260
   2        2S          0.00000   0.00111  -0.29751   1.24848   1.09409
   3        3S          0.00000  -0.00163   2.12995   0.82493   2.08292
   4        4PX         0.00000   0.01301  -0.00030  -0.00057  -0.00051
   5        4PY         0.01301   0.00000   0.00000   0.00000   0.00000
   6        4PZ         0.00000   0.00047  -0.32593  -0.01415   0.16194
   7        5PX         0.00000  -0.27453   0.00044   0.00051   0.00090
   8        5PY        -0.27453   0.00000   0.00000   0.00000   0.00000
   9        5PZ         0.00000   0.00072  -1.23202  -0.05212  -0.57674
  10        6XX         0.00000  -0.00074  -0.56260  -0.99684  -1.03870
  11        6YY         0.00000  -0.00004  -0.56260  -0.99684  -1.03870
  12        6ZZ         0.00000   0.00007   0.97496  -0.82644  -1.21579
  13        6XY        -0.00040   0.00000   0.00000   0.00000   0.00000
  14        6XZ         0.00000   0.83140  -0.00023  -0.00002  -0.00028
  15        6YZ         0.83140   0.00000   0.00000   0.00000   0.00000
  16 2   O  1S          0.00000   0.00004   0.08864  -0.28590   0.31260
  17        2S          0.00000  -0.00111   0.29751   1.24848  -1.09409
  18        3S          0.00000   0.00163  -2.12995   0.82493  -2.08292
  19        4PX         0.00000  -0.01301   0.00030  -0.00057   0.00051
  20        4PY        -0.01301   0.00000   0.00000   0.00000   0.00000
  21        4PZ         0.00000   0.00047  -0.32593   0.01415   0.16194
  22        5PX         0.00000   0.27453  -0.00044   0.00051  -0.00090
  23        5PY         0.27453   0.00000   0.00000   0.00000   0.00000
  24        5PZ         0.00000   0.00072  -1.23202   0.05212  -0.57674
  25        6XX         0.00000   0.00074   0.56260  -0.99684   1.03870
  26        6YY         0.00000   0.00004   0.56260  -0.99684   1.03870
  27        6ZZ         0.00000  -0.00007  -0.97496  -0.82644   1.21579
  28        6XY         0.00040   0.00000   0.00000   0.00000   0.00000
  29        6XZ         0.00000   0.83140  -0.00023   0.00002  -0.00028
  30        6YZ         0.83140   0.00000   0.00000   0.00000   0.00000
     Beta Molecular Orbital Coefficients:
                           1         2         3         4         5
                           O         O         O         O         O
     Eigenvalues --   -20.69983 -20.69868  -1.57865  -0.99768  -0.69575
   1 1   O  1S          0.70516   0.70532  -0.14665  -0.15529  -0.05996
   2        2S          0.00968   0.00938   0.31085   0.34578   0.10545
   3        3S         -0.00071  -0.00255   0.26871   0.43980   0.29649
   4        4PX        -0.00002  -0.00002  -0.00167  -0.00312  -0.00995
   5        4PY         0.00000   0.00000   0.00000   0.00000   0.00000
   6        4PZ        -0.00117  -0.00122  -0.16789   0.15157   0.45501
   7        5PX         0.00000   0.00000  -0.00206  -0.00526  -0.00862
   8        5PY         0.00000   0.00000   0.00000   0.00000   0.00000
   9        5PZ         0.00044   0.00096  -0.04984   0.08318   0.24860
  10        6XX        -0.00065  -0.00053  -0.01002  -0.00090   0.00132
  11        6YY        -0.00065  -0.00053  -0.01002  -0.00091   0.00128
  12        6ZZ        -0.00046   0.00055   0.03886  -0.00255  -0.03695
  13        6XY         0.00000   0.00000   0.00000   0.00000   0.00000
  14        6XZ         0.00000   0.00000   0.00018  -0.00026   0.00005
  15        6YZ         0.00000   0.00000   0.00000   0.00000   0.00000
  16 2   O  1S          0.70516  -0.70532  -0.14665   0.15529  -0.05996
  17        2S          0.00968  -0.00938   0.31085  -0.34578   0.10545
  18        3S         -0.00071   0.00255   0.26871  -0.43980   0.29649
  19        4PX        -0.00002   0.00002  -0.00167   0.00312  -0.00995
  20        4PY         0.00000   0.00000   0.00000   0.00000   0.00000
  21        4PZ         0.00117  -0.00122   0.16789   0.15157  -0.45501
  22        5PX         0.00000   0.00000  -0.00206   0.00526  -0.00862
  23        5PY         0.00000   0.00000   0.00000   0.00000   0.00000
  24        5PZ        -0.00044   0.00096   0.04984   0.08318  -0.24860
  25        6XX        -0.00065   0.00053  -0.01002   0.00090   0.00132
  26        6YY        -0.00065   0.00053  -0.01002   0.00091   0.00128
  27        6ZZ        -0.00046  -0.00055   0.03886   0.00255  -0.03695
  28        6XY         0.00000   0.00000   0.00000   0.00000   0.00000
  29        6XZ         0.00000   0.00000  -0.00018  -0.00026  -0.00005
  30        6YZ         0.00000   0.00000   0.00000   0.00000   0.00000
                           6         7         8         9        10
                           O         O         V         V         V
     Eigenvalues --    -0.56807  -0.56799   0.11048   0.11051   0.49319
   1 1   O  1S          0.00000  -0.00219   0.00000  -0.00097  -0.10576
   2        2S          0.00000   0.00723   0.00000   0.00553   0.18611
   3        3S          0.00000   0.00509   0.00000  -0.00555   1.28520
   4        4PX         0.00000   0.40404   0.00000   0.44292  -0.00166
   5        4PY         0.40418   0.00000   0.44294   0.00000   0.00000
   6        4PZ         0.00000   0.01028   0.00000   0.00304  -0.39448
   7        5PX         0.00000   0.31965   0.00000   0.53174   0.00377
   8        5PY         0.31976   0.00000   0.53176   0.00000   0.00000
   9        5PZ         0.00000   0.00701   0.00000   0.00371  -1.21945
  10        6XX         0.00000  -0.00023   0.00000  -0.00023  -0.00039
  11        6YY         0.00000   0.00124   0.00000   0.00130  -0.00039
  12        6ZZ         0.00000   0.00063   0.00000   0.00122  -0.01536
  13        6XY        -0.00085   0.00000  -0.00089   0.00000   0.00000
  14        6XZ         0.00000  -0.04011   0.00000   0.00694   0.00060
  15        6YZ        -0.04010   0.00000   0.00695   0.00000   0.00000
  16 2   O  1S          0.00000  -0.00219   0.00000   0.00097   0.10576
  17        2S          0.00000   0.00723   0.00000  -0.00553  -0.18611
  18        3S          0.00000   0.00509   0.00000   0.00555  -1.28520
  19        4PX         0.00000   0.40404   0.00000  -0.44292   0.00166
  20        4PY         0.40418   0.00000  -0.44294   0.00000   0.00000
  21        4PZ         0.00000  -0.01028   0.00000   0.00304  -0.39448
  22        5PX         0.00000   0.31965   0.00000  -0.53174  -0.00377
  23        5PY         0.31976   0.00000  -0.53176   0.00000   0.00000
  24        5PZ         0.00000  -0.00701   0.00000   0.00371  -1.21945
  25        6XX         0.00000  -0.00023   0.00000   0.00023   0.00039
  26        6YY         0.00000   0.00124   0.00000  -0.00130   0.00039
  27        6ZZ         0.00000   0.00063   0.00000  -0.00122   0.01536
  28        6XY        -0.00085   0.00000   0.00089   0.00000   0.00000
  29        6XZ         0.00000   0.04011   0.00000   0.00694   0.00060
  30        6YZ         0.04010   0.00000   0.00695   0.00000   0.00000
                          11        12        13        14        15
                           V         V         V         V         V
     Eigenvalues --     1.08675   1.16643   1.16869   1.17637   1.18302
   1 1   O  1S          0.00813  -0.00860   0.02461   0.00000  -0.00655
   2        2S         -0.04388  -0.67205  -0.02780   0.00000  -0.55037
   3        3S         -0.74892   0.86687   0.23747   0.00000   0.71257
   4        4PX         0.01590   0.44589   0.00897   0.00000  -0.54283
   5        4PY         0.00000   0.00000   0.00000   0.70253   0.00000
   6        4PZ        -0.69850  -0.01644  -0.59764   0.00000  -0.02399
   7        5PX        -0.02015  -0.38319  -0.00853   0.00000   0.47042
   8        5PY         0.00000   0.00000   0.00000  -0.60680   0.00000
   9        5PZ         1.23261  -0.03966   0.81673   0.00000  -0.01760
  10        6XX         0.00553  -0.11631  -0.04876   0.00000  -0.09485
  11        6YY         0.00553  -0.11650  -0.04877   0.00000  -0.09460
  12        6ZZ        -0.13653  -0.22055   0.11322   0.00000  -0.17843
  13        6XY         0.00000   0.00000   0.00000   0.00018   0.00000
  14        6XZ         0.00045  -0.03339  -0.00119   0.00000   0.04111
  15        6YZ         0.00000   0.00000   0.00000  -0.05297   0.00000
  16 2   O  1S         -0.00813  -0.00860   0.02461   0.00000  -0.00655
  17        2S          0.04388  -0.67205  -0.02780   0.00000  -0.55037
  18        3S          0.74892   0.86687   0.23747   0.00000   0.71257
  19        4PX        -0.01590   0.44589   0.00897   0.00000  -0.54283
  20        4PY         0.00000   0.00000   0.00000   0.70253   0.00000
  21        4PZ        -0.69850   0.01644   0.59764   0.00000   0.02399
  22        5PX         0.02015  -0.38319  -0.00853   0.00000   0.47042
  23        5PY         0.00000   0.00000   0.00000  -0.60680   0.00000
  24        5PZ         1.23261   0.03966  -0.81673   0.00000   0.01760
  25        6XX        -0.00553  -0.11631  -0.04876   0.00000  -0.09485
  26        6YY        -0.00553  -0.11650  -0.04877   0.00000  -0.09460
  27        6ZZ         0.13653  -0.22055   0.11322   0.00000  -0.17843
  28        6XY         0.00000   0.00000   0.00000   0.00018   0.00000
  29        6XZ         0.00045   0.03339   0.00119   0.00000  -0.04111
  30        6YZ         0.00000   0.00000   0.00000   0.05297   0.00000
                          16        17        18        19        20
                           V         V         V         V         V
     Eigenvalues --     1.28976   1.28979   1.85821   2.44244   2.44245
   1 1   O  1S          0.00000   0.00135  -0.06459   0.00000  -0.00007
   2        2S          0.00000   0.01205  -1.21434   0.00000   0.00033
   3        3S          0.00000  -0.06429   3.70001   0.00000   0.00027
   4        4PX         0.00000  -0.69937  -0.00686   0.00000   0.10901
   5        4PY        -0.69958   0.00000   0.00000   0.10901   0.00000
   6        4PZ         0.00000  -0.01453   0.09859   0.00000   0.00048
   7        5PX         0.00000   0.99215   0.01242   0.00000   0.02678
   8        5PY         0.99245   0.00000   0.00000   0.02678   0.00000
   9        5PZ         0.00000   0.05059  -1.69497   0.00000   0.00080
  10        6XX         0.00000   0.00316  -0.19312   0.00000  -0.00126
  11        6YY         0.00000   0.00336  -0.19311   0.00000   0.00065
  12        6ZZ         0.00000  -0.00010  -0.21822   0.00000   0.00064
  13        6XY        -0.00012   0.00000   0.00000  -0.00110   0.00000
  14        6XZ         0.00000   0.00718   0.00073   0.00000   0.63896
  15        6YZ         0.00717   0.00000   0.00000   0.63896   0.00000
  16 2   O  1S          0.00000  -0.00135   0.06459   0.00000  -0.00007
  17        2S          0.00000  -0.01205   1.21434   0.00000   0.00033
  18        3S          0.00000   0.06429  -3.70001   0.00000   0.00027
  19        4PX         0.00000   0.69937   0.00686   0.00000   0.10901
  20        4PY         0.69958   0.00000   0.00000   0.10901   0.00000
  21        4PZ         0.00000  -0.01453   0.09859   0.00000  -0.00048
  22        5PX         0.00000  -0.99215  -0.01242   0.00000   0.02678
  23        5PY        -0.99245   0.00000   0.00000   0.02678   0.00000
  24        5PZ         0.00000   0.05059  -1.69497   0.00000  -0.00080
  25        6XX         0.00000  -0.00316   0.19312   0.00000  -0.00126
  26        6YY         0.00000  -0.00336   0.19311   0.00000   0.00065
  27        6ZZ         0.00000   0.00010   0.21822   0.00000   0.00064
  28        6XY         0.00012   0.00000   0.00000  -0.00110   0.00000
  29        6XZ         0.00000   0.00718   0.00073   0.00000  -0.63896
  30        6YZ         0.00717   0.00000   0.00000  -0.63896   0.00000
                          21        22        23        24        25
                           V         V         V         V         V
     Eigenvalues --     2.74934   2.74934   3.07871   3.07871   3.18408
   1 1   O  1S          0.00000   0.00000   0.00000   0.00000   0.00344
   2        2S          0.00000   0.00000   0.00000  -0.00001  -0.35530
   3        3S          0.00000  -0.00001   0.00000   0.00001   0.22279
   4        4PX         0.00000  -0.00049   0.00000   0.00043  -0.00085
   5        4PY         0.00049   0.00000   0.00043   0.00000   0.00000
   6        4PZ         0.00000   0.00000   0.00000   0.00000   0.34319
   7        5PX         0.00000  -0.00059   0.00000   0.00076   0.00049
   8        5PY         0.00059   0.00000   0.00076   0.00000   0.00000
   9        5PZ         0.00000   0.00000   0.00000   0.00000  -0.29544
  10        6XX         0.00006  -0.59947   0.00000   0.62615  -0.37346
  11        6YY        -0.00006   0.59947   0.00000  -0.62615  -0.37347
  12        6ZZ         0.00000   0.00000   0.00000   0.00000   0.60037
  13        6XY         0.69221   0.00007   0.72301   0.00000   0.00000
  14        6XZ         0.00000  -0.00098   0.00000   0.00018  -0.00047
  15        6YZ         0.00098   0.00000   0.00018   0.00000   0.00000
  16 2   O  1S          0.00000   0.00000   0.00000   0.00000   0.00344
  17        2S          0.00000   0.00000   0.00000   0.00001  -0.35530
  18        3S          0.00000  -0.00001   0.00000  -0.00001   0.22279
  19        4PX         0.00000  -0.00049   0.00000  -0.00043  -0.00085
  20        4PY         0.00049   0.00000  -0.00043   0.00000   0.00000
  21        4PZ         0.00000   0.00000   0.00000   0.00000  -0.34319
  22        5PX         0.00000  -0.00059   0.00000  -0.00076   0.00049
  23        5PY         0.00059   0.00000  -0.00076   0.00000   0.00000
  24        5PZ         0.00000   0.00000   0.00000   0.00000   0.29544
  25        6XX         0.00006  -0.59947   0.00000  -0.62615  -0.37346
  26        6YY        -0.00006   0.59947   0.00000   0.62615  -0.37347
  27        6ZZ         0.00000   0.00000   0.00000   0.00000   0.60037
  28        6XY         0.69221   0.00007  -0.72301   0.00000   0.00000
  29        6XZ         0.00000   0.00098   0.00000   0.00018   0.00047
  30        6YZ        -0.00098   0.00000   0.00018   0.00000   0.00000
                          26        27        28        29        30
                           V         V         V         V         V
     Eigenvalues --     3.70135   3.70135   4.21235   5.44979   6.01369
   1 1   O  1S          0.00000  -0.00003  -0.08650  -0.28578  -0.31205
   2        2S          0.00000   0.00124  -0.30552   1.25814   1.10500
   3        3S          0.00000  -0.00222   2.12300   0.81698   2.05855
   4        4PX         0.00000   0.00948  -0.00044  -0.00043  -0.00037
   5        4PY         0.00947   0.00000   0.00000   0.00000   0.00000
   6        4PZ         0.00000   0.00075  -0.32787  -0.01598   0.16277
   7        5PX         0.00000  -0.26973   0.00043   0.00044   0.00080
   8        5PY        -0.26972   0.00000   0.00000   0.00000   0.00000
   9        5PZ         0.00000   0.00099  -1.22515  -0.05100  -0.56689
  10        6XX         0.00000  -0.00036  -0.56482  -0.99378  -1.03639
  11        6YY         0.00000  -0.00010  -0.56482  -0.99378  -1.03639
  12        6ZZ         0.00000  -0.00006   0.97224  -0.82773  -1.21581
  13        6XY        -0.00015   0.00000   0.00000   0.00000   0.00000
  14        6XZ         0.00000   0.83144  -0.00005   0.00001  -0.00026
  15        6YZ         0.83144   0.00000   0.00000   0.00000   0.00000
  16 2   O  1S          0.00000   0.00003   0.08650  -0.28578   0.31205
  17        2S          0.00000  -0.00124   0.30552   1.25814  -1.10500
  18        3S          0.00000   0.00222  -2.12300   0.81698  -2.05855
  19        4PX         0.00000  -0.00948   0.00044  -0.00043   0.00037
  20        4PY        -0.00947   0.00000   0.00000   0.00000   0.00000
  21        4PZ         0.00000   0.00075  -0.32787   0.01598   0.16277
  22        5PX         0.00000   0.26973  -0.00043   0.00044  -0.00080
  23        5PY         0.26972   0.00000   0.00000   0.00000   0.00000
  24        5PZ         0.00000   0.00099  -1.22515   0.05100  -0.56689
  25        6XX         0.00000   0.00036   0.56482  -0.99378   1.03639
  26        6YY         0.00000   0.00010   0.56482  -0.99378   1.03639
  27        6ZZ         0.00000   0.00006  -0.97224  -0.82773   1.21581
  28        6XY         0.00015   0.00000   0.00000   0.00000   0.00000
  29        6XZ         0.00000   0.83144  -0.00005  -0.00001  -0.00026
  30        6YZ         0.83144   0.00000   0.00000   0.00000   0.00000
     Alpha Density Matrix:
                           1         2         3         4         5
   1 1   O  1S          1.04564
   2        2S         -0.10286   0.27756
   3        3S         -0.13234   0.29715   0.36002
   4        4PX        -0.00028   0.00353  -0.00404   0.52437
   5        4PY         0.00000   0.00000   0.00000   0.00000   0.52440
   6        4PZ        -0.02495   0.04551   0.14569   0.00112   0.00000
   7        5PX         0.00054   0.00060  -0.00457   0.32730   0.00000
   8        5PY         0.00000   0.00000   0.00000   0.00000   0.32730
   9        5PZ        -0.00994   0.02107   0.06421   0.00102   0.00000
  10        6XX        -0.00276   0.00241   0.00463  -0.00028   0.00000
  11        6YY        -0.00276   0.00241   0.00462   0.00094   0.00000
  12        6ZZ         0.00019  -0.00493  -0.01644   0.00084   0.00000
  13        6XY         0.00000   0.00000   0.00000   0.00000  -0.00071
  14        6XZ         0.00003  -0.00010  -0.00011  -0.00909   0.00000
  15        6YZ         0.00000   0.00000   0.00000   0.00000  -0.00909
  16 2   O  1S         -0.00095   0.00368   0.02593  -0.00003   0.00000
  17        2S          0.00368  -0.01139  -0.06384  -0.00013   0.00000
  18        3S          0.02593  -0.06384  -0.09179   0.00156   0.00000
  19        4PX        -0.00003  -0.00013   0.00156  -0.06163   0.00000
  20        4PY         0.00000   0.00000   0.00000   0.00000  -0.06163
  21        4PZ        -0.01767   0.04993  -0.02629   0.00061   0.00000
  22        5PX        -0.00020   0.00011   0.00196  -0.08382   0.00000
  23        5PY         0.00000   0.00000   0.00000   0.00000  -0.08382
  24        5PZ         0.00375  -0.00345  -0.04223   0.00032   0.00000
  25        6XX         0.00089  -0.00239  -0.00142   0.00004   0.00000
  26        6YY         0.00089  -0.00239  -0.00142  -0.00002   0.00000
  27        6ZZ        -0.00540   0.01241   0.00522   0.00006   0.00000
  28        6XY         0.00000   0.00000   0.00000   0.00000   0.00004
  29        6XZ        -0.00001   0.00011   0.00002   0.01457   0.00000
  30        6YZ         0.00000   0.00000   0.00000   0.00000   0.01457
                           6         7         8         9        10
   6        4PZ         0.25976
   7        5PX        -0.00009   0.20828
   8        5PY         0.00000   0.00000   0.20826
   9        5PZ         0.12052   0.00030   0.00000   0.05857
  10        6XX         0.00519  -0.00020   0.00000   0.00227   0.00012
  11        6YY         0.00519   0.00056   0.00000   0.00227   0.00012
  12        6ZZ        -0.02763   0.00061   0.00000  -0.01212  -0.00059
  13        6XY         0.00000   0.00000  -0.00044   0.00000   0.00000
  14        6XZ        -0.00032  -0.00430   0.00000  -0.00016   0.00000
  15        6YZ         0.00000   0.00000  -0.00430   0.00000   0.00000
  16 2   O  1S          0.01767  -0.00020   0.00000  -0.00375   0.00089
  17        2S         -0.04993   0.00011   0.00000   0.00345  -0.00239
  18        3S          0.02629   0.00196   0.00000   0.04223  -0.00142
  19        4PX        -0.00061  -0.08382   0.00000  -0.00032   0.00004
  20        4PY         0.00000   0.00000  -0.08382   0.00000   0.00000
  21        4PZ        -0.22818   0.00061   0.00000  -0.11470  -0.00359
  22        5PX        -0.00061  -0.08016   0.00000  -0.00051   0.00006
  23        5PY         0.00000   0.00000  -0.08015   0.00000   0.00000
  24        5PZ        -0.11470   0.00051   0.00000  -0.05749  -0.00198
  25        6XX         0.00359   0.00006   0.00000   0.00198   0.00004
  26        6YY         0.00359  -0.00009   0.00000   0.00197   0.00004
  27        6ZZ        -0.02191  -0.00007   0.00000  -0.01106  -0.00030
  28        6XY         0.00000   0.00000   0.00008   0.00000   0.00000
  29        6XZ         0.00032   0.00815   0.00000   0.00017   0.00000
  30        6YZ         0.00000   0.00000   0.00815   0.00000   0.00000
                          11        12        13        14        15
  11        6YY         0.00012
  12        6ZZ        -0.00058   0.00314
  13        6XY         0.00000   0.00000   0.00000
  14        6XZ        -0.00002   0.00001   0.00000   0.00063
  15        6YZ         0.00000   0.00000   0.00001   0.00000   0.00063
  16 2   O  1S          0.00089  -0.00540   0.00000   0.00001   0.00000
  17        2S         -0.00239   0.01241   0.00000  -0.00011   0.00000
  18        3S         -0.00142   0.00522   0.00000  -0.00002   0.00000
  19        4PX        -0.00002   0.00006   0.00000  -0.01457   0.00000
  20        4PY         0.00000   0.00000   0.00004   0.00000  -0.01457
  21        4PZ        -0.00359   0.02191   0.00000   0.00032   0.00000
  22        5PX        -0.00009  -0.00007   0.00000  -0.00815   0.00000
  23        5PY         0.00000   0.00000   0.00008   0.00000  -0.00815
  24        5PZ        -0.00197   0.01106   0.00000   0.00017   0.00000
  25        6XX         0.00004  -0.00030   0.00000   0.00000   0.00000
  26        6YY         0.00004  -0.00030   0.00000  -0.00003   0.00000
  27        6ZZ        -0.00030   0.00209   0.00000   0.00000   0.00000
  28        6XY         0.00000   0.00000   0.00000   0.00000   0.00002
  29        6XZ         0.00003   0.00000   0.00000  -0.00058   0.00000
  30        6YZ         0.00000   0.00000  -0.00002   0.00000  -0.00058
                          16        17        18        19        20
  16 2   O  1S          1.04564
  17        2S         -0.10286   0.27756
  18        3S         -0.13234   0.29715   0.36002
  19        4PX        -0.00028   0.00353  -0.00404   0.52437
  20        4PY         0.00000   0.00000   0.00000   0.00000   0.52440
  21        4PZ         0.02495  -0.04551  -0.14569  -0.00112   0.00000
  22        5PX         0.00054   0.00060  -0.00457   0.32730   0.00000
  23        5PY         0.00000   0.00000   0.00000   0.00000   0.32730
  24        5PZ         0.00994  -0.02107  -0.06421  -0.00102   0.00000
  25        6XX        -0.00276   0.00241   0.00463  -0.00028   0.00000
  26        6YY        -0.00276   0.00241   0.00462   0.00094   0.00000
  27        6ZZ         0.00019  -0.00493  -0.01644   0.00084   0.00000
  28        6XY         0.00000   0.00000   0.00000   0.00000  -0.00071
  29        6XZ        -0.00003   0.00010   0.00011   0.00909   0.00000
  30        6YZ         0.00000   0.00000   0.00000   0.00000   0.00909
                          21        22        23        24        25
  21        4PZ         0.25976
  22        5PX         0.00009   0.20828
  23        5PY         0.00000   0.00000   0.20826
  24        5PZ         0.12052  -0.00030   0.00000   0.05857
  25        6XX        -0.00519  -0.00020   0.00000  -0.00227   0.00012
  26        6YY        -0.00519   0.00056   0.00000  -0.00227   0.00012
  27        6ZZ         0.02763   0.00061   0.00000   0.01212  -0.00059
  28        6XY         0.00000   0.00000  -0.00044   0.00000   0.00000
  29        6XZ        -0.00032   0.00430   0.00000  -0.00016   0.00000
  30        6YZ         0.00000   0.00000   0.00430   0.00000   0.00000
                          26        27        28        29        30
  26        6YY         0.00012
  27        6ZZ        -0.00058   0.00314
  28        6XY         0.00000   0.00000   0.00000
  29        6XZ         0.00002  -0.00001   0.00000   0.00063
  30        6YZ         0.00000   0.00000  -0.00001   0.00000   0.00063
     Beta Density Matrix:
                           1         2         3         4         5
   1 1   O  1S          1.04394
   2        2S         -0.09218   0.22754
   3        3S         -0.12779   0.26687   0.35357
   4        4PX         0.00042   0.00027  -0.00271   0.16336
   5        4PY         0.00000   0.00000   0.00000   0.00000   0.16336
   6        4PZ        -0.02791   0.04825   0.15651  -0.00057   0.00000
   7        5PX         0.00094  -0.00106  -0.00380   0.12926   0.00000
   8        5PY         0.00000   0.00000   0.00000   0.00000   0.12924
   9        5PZ        -0.01954   0.03955   0.09693   0.00018   0.00000
  10        6XX         0.00069  -0.00330  -0.00270  -0.00009   0.00000
  11        6YY         0.00069  -0.00330  -0.00271   0.00051   0.00000
  12        6ZZ        -0.00303   0.00731  -0.00163   0.00056   0.00000
  13        6XY         0.00000   0.00000   0.00000   0.00000  -0.00034
  14        6XZ         0.00010  -0.00032  -0.00026  -0.01621   0.00000
  15        6YZ         0.00000   0.00000   0.00000   0.00000  -0.01621
  16 2   O  1S          0.00076   0.00198   0.01240  -0.00053   0.00000
  17        2S          0.00198  -0.01176  -0.03723   0.00243   0.00000
  18        3S          0.01240  -0.03723  -0.03330   0.00003   0.00000
  19        4PX        -0.00053   0.00243   0.00003   0.16334   0.00000
  20        4PY         0.00000   0.00000   0.00000   0.00000   0.16336
  21        4PZ        -0.02090   0.05655  -0.02318  -0.00038   0.00000
  22        5PX        -0.00070   0.00258   0.00083   0.12922   0.00000
  23        5PY         0.00000   0.00000   0.00000   0.00000   0.12924
  24        5PZ        -0.00494   0.01799  -0.02377  -0.00070   0.00000
  25        6XX         0.00117  -0.00267  -0.00191  -0.00009   0.00000
  26        6YY         0.00116  -0.00266  -0.00191   0.00050   0.00000
  27        6ZZ        -0.00459   0.00906   0.00061   0.00055   0.00000
  28        6XY         0.00000   0.00000   0.00000   0.00000  -0.00034
  29        6XZ        -0.00002   0.00014   0.00003   0.01621   0.00000
  30        6YZ         0.00000   0.00000   0.00000   0.00000   0.01621
                           6         7         8         9        10
   6        4PZ         0.25831
   7        5PX        -0.00109   0.10228
   8        5PY         0.00000   0.00000   0.10225
   9        5PZ         0.13416  -0.00024   0.00000   0.07126
  10        6XX         0.00214  -0.00006   0.00000   0.00075   0.00010
  11        6YY         0.00214   0.00041   0.00000   0.00075   0.00010
  12        6ZZ        -0.02372   0.00045   0.00000  -0.01133  -0.00044
  13        6XY         0.00000   0.00000  -0.00027   0.00000   0.00000
  14        6XZ        -0.00046  -0.01282   0.00000  -0.00030   0.00001
  15        6YZ         0.00000   0.00000  -0.01282   0.00000   0.00000
  16 2   O  1S          0.02090  -0.00070   0.00000   0.00494   0.00117
  17        2S         -0.05655   0.00258   0.00000  -0.01799  -0.00267
  18        3S          0.02318   0.00083   0.00000   0.02377  -0.00191
  19        4PX         0.00038   0.12922   0.00000   0.00070  -0.00009
  20        4PY         0.00000   0.00000   0.12924   0.00000   0.00000
  21        4PZ        -0.21236  -0.00050   0.00000  -0.10895  -0.00242
  22        5PX         0.00050   0.10223   0.00000   0.00064  -0.00007
  23        5PY         0.00000   0.00000   0.10225   0.00000   0.00000
  24        5PZ        -0.10895  -0.00064   0.00000  -0.05742  -0.00090
  25        6XX         0.00242  -0.00007   0.00000   0.00090   0.00010
  26        6YY         0.00242   0.00040   0.00000   0.00090   0.00010
  27        6ZZ        -0.02294   0.00043   0.00000  -0.01091  -0.00044
  28        6XY         0.00000   0.00000  -0.00027   0.00000   0.00000
  29        6XZ         0.00038   0.01282   0.00000   0.00026  -0.00001
  30        6YZ         0.00000   0.00000   0.01282   0.00000   0.00000
                          11        12        13        14        15
  11        6YY         0.00011
  12        6ZZ        -0.00043   0.00288
  13        6XY         0.00000   0.00000   0.00000
  14        6XZ        -0.00005  -0.00002   0.00000   0.00161
  15        6YZ         0.00000   0.00000   0.00003   0.00000   0.00161
  16 2   O  1S          0.00116  -0.00459   0.00000   0.00002   0.00000
  17        2S         -0.00266   0.00906   0.00000  -0.00014   0.00000
  18        3S         -0.00191   0.00061   0.00000  -0.00003   0.00000
  19        4PX         0.00050   0.00055   0.00000  -0.01621   0.00000
  20        4PY         0.00000   0.00000  -0.00034   0.00000  -0.01621
  21        4PZ        -0.00242   0.02294   0.00000   0.00038   0.00000
  22        5PX         0.00040   0.00043   0.00000  -0.01282   0.00000
  23        5PY         0.00000   0.00000  -0.00027   0.00000  -0.01282
  24        5PZ        -0.00090   0.01091   0.00000   0.00026   0.00000
  25        6XX         0.00010  -0.00044   0.00000   0.00001   0.00000
  26        6YY         0.00010  -0.00044   0.00000  -0.00005   0.00000
  27        6ZZ        -0.00044   0.00287   0.00000  -0.00002   0.00000
  28        6XY         0.00000   0.00000   0.00000   0.00000   0.00003
  29        6XZ         0.00005   0.00002   0.00000  -0.00161   0.00000
  30        6YZ         0.00000   0.00000  -0.00003   0.00000  -0.00161
                          16        17        18        19        20
  16 2   O  1S          1.04394
  17        2S         -0.09218   0.22754
  18        3S         -0.12779   0.26687   0.35357
  19        4PX         0.00042   0.00027  -0.00271   0.16336
  20        4PY         0.00000   0.00000   0.00000   0.00000   0.16336
  21        4PZ         0.02791  -0.04825  -0.15651   0.00057   0.00000
  22        5PX         0.00094  -0.00106  -0.00380   0.12926   0.00000
  23        5PY         0.00000   0.00000   0.00000   0.00000   0.12924
  24        5PZ         0.01954  -0.03955  -0.09693  -0.00018   0.00000
  25        6XX         0.00069  -0.00330  -0.00270  -0.00009   0.00000
  26        6YY         0.00069  -0.00330  -0.00271   0.00051   0.00000
  27        6ZZ        -0.00303   0.00731  -0.00163   0.00056   0.00000
  28        6XY         0.00000   0.00000   0.00000   0.00000  -0.00034
  29        6XZ        -0.00010   0.00032   0.00026   0.01621   0.00000
  30        6YZ         0.00000   0.00000   0.00000   0.00000   0.01621
                          21        22        23        24        25
  21        4PZ         0.25831
  22        5PX         0.00109   0.10228
  23        5PY         0.00000   0.00000   0.10225
  24        5PZ         0.13416   0.00024   0.00000   0.07126
  25        6XX        -0.00214  -0.00006   0.00000  -0.00075   0.00010
  26        6YY        -0.00214   0.00041   0.00000  -0.00075   0.00010
  27        6ZZ         0.02372   0.00045   0.00000   0.01133  -0.00044
  28        6XY         0.00000   0.00000  -0.00027   0.00000   0.00000
  29        6XZ        -0.00046   0.01282   0.00000  -0.00030  -0.00001
  30        6YZ         0.00000   0.00000   0.01282   0.00000   0.00000
                          26        27        28        29        30
  26        6YY         0.00011
  27        6ZZ        -0.00043   0.00288
  28        6XY         0.00000   0.00000   0.00000
  29        6XZ         0.00005   0.00002   0.00000   0.00161
  30        6YZ         0.00000   0.00000  -0.00003   0.00000   0.00161
    Full Mulliken population analysis:
                           1         2         3         4         5
   1 1   O  1S          2.08958
   2        2S         -0.04392   0.50510
   3        3S         -0.04782   0.44683   0.71359
   4        4PX         0.00000   0.00000   0.00000   0.68774
   5        4PY         0.00000   0.00000   0.00000   0.00000   0.68776
   6        4PZ         0.00000   0.00000   0.00000   0.00000   0.00000
   7        5PX         0.00000   0.00000   0.00000   0.22886   0.00000
   8        5PY         0.00000   0.00000   0.00000   0.00000   0.22885
   9        5PZ         0.00000   0.00000   0.00000   0.00000   0.00000
  10        6XX        -0.00013  -0.00059   0.00128   0.00000   0.00000
  11        6YY        -0.00013  -0.00058   0.00127   0.00000   0.00000
  12        6ZZ        -0.00017   0.00156  -0.01200   0.00000   0.00000
  13        6XY         0.00000   0.00000   0.00000   0.00000   0.00000
  14        6XZ         0.00000   0.00000   0.00000   0.00000   0.00000
  15        6YZ         0.00000   0.00000   0.00000   0.00000   0.00000
  16 2   O  1S          0.00000   0.00002   0.00151   0.00000   0.00000
  17        2S          0.00002  -0.00185  -0.02377   0.00000   0.00000
  18        3S          0.00151  -0.02377  -0.05622   0.00000   0.00000
  19        4PX         0.00000   0.00000   0.00000   0.00391   0.00000
  20        4PY         0.00000   0.00000   0.00000   0.00000   0.00391
  21        4PZ        -0.00037   0.01362  -0.00947   0.00000   0.00000
  22        5PX         0.00000   0.00000   0.00000   0.00702   0.00000
  23        5PY         0.00000   0.00000   0.00000   0.00000   0.00702
  24        5PZ        -0.00012   0.00672  -0.03884   0.00000   0.00000
  25        6XX         0.00000  -0.00019  -0.00062   0.00000   0.00000
  26        6YY         0.00000  -0.00019  -0.00062   0.00000   0.00000
  27        6ZZ        -0.00021   0.00468   0.00179   0.00000   0.00000
  28        6XY         0.00000   0.00000   0.00000   0.00000   0.00000
  29        6XZ         0.00000   0.00000   0.00000   0.00304   0.00000
  30        6YZ         0.00000   0.00000   0.00000   0.00000   0.00304
                           6         7         8         9        10
   6        4PZ         0.51806
   7        5PX         0.00000   0.31056
   8        5PY         0.00000   0.00000   0.31051
   9        5PZ         0.12766   0.00000   0.00000   0.12982
  10        6XX         0.00000   0.00000   0.00000   0.00000   0.00023
  11        6YY         0.00000   0.00000   0.00000   0.00000   0.00007
  12        6ZZ         0.00000   0.00000   0.00000   0.00000  -0.00034
  13        6XY         0.00000   0.00000   0.00000   0.00000   0.00000
  14        6XZ         0.00000   0.00000   0.00000   0.00000   0.00000
  15        6YZ         0.00000   0.00000   0.00000   0.00000   0.00000
  16 2   O  1S         -0.00037   0.00000   0.00000  -0.00012   0.00000
  17        2S          0.01362   0.00000   0.00000   0.00672  -0.00019
  18        3S         -0.00947   0.00000   0.00000  -0.03884  -0.00062
  19        4PX         0.00000   0.00702   0.00000   0.00000   0.00000
  20        4PY         0.00000   0.00000   0.00702   0.00000   0.00000
  21        4PZ         0.08244   0.00000   0.00000   0.04662  -0.00037
  22        5PX         0.00000   0.01065   0.00000   0.00000   0.00000
  23        5PY         0.00000   0.00000   0.01067   0.00000   0.00000
  24        5PZ         0.04662   0.00000   0.00000   0.02532  -0.00112
  25        6XX        -0.00037   0.00000   0.00000  -0.00112   0.00001
  26        6YY        -0.00037   0.00000   0.00000  -0.00112   0.00000
  27        6ZZ         0.01336   0.00000   0.00000   0.00928  -0.00008
  28        6XY         0.00000   0.00000   0.00000   0.00000   0.00000
  29        6XZ         0.00000   0.00329   0.00000   0.00000   0.00000
  30        6YZ         0.00000   0.00000   0.00329   0.00000   0.00000
                          11        12        13        14        15
  11        6YY         0.00023
  12        6ZZ        -0.00034   0.00602
  13        6XY         0.00000   0.00000   0.00000
  14        6XZ         0.00000   0.00000   0.00000   0.00224
  15        6YZ         0.00000   0.00000   0.00000   0.00000   0.00224
  16 2   O  1S          0.00000  -0.00021   0.00000   0.00000   0.00000
  17        2S         -0.00019   0.00468   0.00000   0.00000   0.00000
  18        3S         -0.00062   0.00179   0.00000   0.00000   0.00000
  19        4PX         0.00000   0.00000   0.00000   0.00304   0.00000
  20        4PY         0.00000   0.00000   0.00000   0.00000   0.00304
  21        4PZ        -0.00037   0.01336   0.00000   0.00000   0.00000
  22        5PX         0.00000   0.00000   0.00000   0.00329   0.00000
  23        5PY         0.00000   0.00000   0.00000   0.00000   0.00329
  24        5PZ        -0.00112   0.00928   0.00000   0.00000   0.00000
  25        6XX         0.00000  -0.00008   0.00000   0.00000   0.00000
  26        6YY         0.00001  -0.00008   0.00000   0.00000   0.00000
  27        6ZZ        -0.00008   0.00214   0.00000   0.00000   0.00000
  28        6XY         0.00000   0.00000   0.00000   0.00000   0.00000
  29        6XZ         0.00000   0.00000   0.00000   0.00050   0.00000
  30        6YZ         0.00000   0.00000   0.00000   0.00000   0.00050
                          16        17        18        19        20
  16 2   O  1S          2.08958
  17        2S         -0.04392   0.50510
  18        3S         -0.04782   0.44683   0.71359
  19        4PX         0.00000   0.00000   0.00000   0.68774
  20        4PY         0.00000   0.00000   0.00000   0.00000   0.68776
  21        4PZ         0.00000   0.00000   0.00000   0.00000   0.00000
  22        5PX         0.00000   0.00000   0.00000   0.22886   0.00000
  23        5PY         0.00000   0.00000   0.00000   0.00000   0.22885
  24        5PZ         0.00000   0.00000   0.00000   0.00000   0.00000
  25        6XX        -0.00013  -0.00059   0.00128   0.00000   0.00000
  26        6YY        -0.00013  -0.00058   0.00127   0.00000   0.00000
  27        6ZZ        -0.00017   0.00156  -0.01200   0.00000   0.00000
  28        6XY         0.00000   0.00000   0.00000   0.00000   0.00000
  29        6XZ         0.00000   0.00000   0.00000   0.00000   0.00000
  30        6YZ         0.00000   0.00000   0.00000   0.00000   0.00000
                          21        22        23        24        25
  21        4PZ         0.51806
  22        5PX         0.00000   0.31056
  23        5PY         0.00000   0.00000   0.31051
  24        5PZ         0.12766   0.00000   0.00000   0.12982
  25        6XX         0.00000   0.00000   0.00000   0.00000   0.00023
  26        6YY         0.00000   0.00000   0.00000   0.00000   0.00007
  27        6ZZ         0.00000   0.00000   0.00000   0.00000  -0.00034
  28        6XY         0.00000   0.00000   0.00000   0.00000   0.00000
  29        6XZ         0.00000   0.00000   0.00000   0.00000   0.00000
  30        6YZ         0.00000   0.00000   0.00000   0.00000   0.00000
                          26        27        28        29        30
  26        6YY         0.00023
  27        6ZZ        -0.00034   0.00602
  28        6XY         0.00000   0.00000   0.00000
  29        6XZ         0.00000   0.00000   0.00000   0.00224
  30        6YZ         0.00000   0.00000   0.00000   0.00000   0.00224
     Gross orbital populations:
                         Total     Alpha     Beta      Spin
   1 1   O  1S          1.99826   0.99895   0.99931  -0.00037
   2        2S          0.90745   0.48114   0.42631   0.05483
   3        3S          0.97691   0.48227   0.49464  -0.01237
   4        4PX         0.93057   0.67455   0.25602   0.41852
   5        4PY         0.93059   0.67457   0.25602   0.41855
   6        4PZ         0.79119   0.39405   0.39715  -0.00310
   7        5PX         0.56038   0.32197   0.23842   0.08355
   8        5PY         0.56034   0.32195   0.23839   0.08356
   9        5PZ         0.30424   0.13261   0.17163  -0.03901
  10        6XX        -0.00184   0.00309  -0.00492   0.00801
  11        6YY        -0.00184   0.00309  -0.00493   0.00801
  12        6ZZ         0.02560   0.00482   0.02078  -0.01596
  13        6XY         0.00000   0.00000   0.00000   0.00000
  14        6XZ         0.00907   0.00348   0.00559  -0.00211
  15        6YZ         0.00907   0.00348   0.00559  -0.00211
  16 2   O  1S          1.99826   0.99895   0.99931  -0.00037
  17        2S          0.90745   0.48114   0.42631   0.05483
  18        3S          0.97691   0.48227   0.49464  -0.01237
  19        4PX         0.93057   0.67455   0.25602   0.41852
  20        4PY         0.93059   0.67457   0.25602   0.41855
  21        4PZ         0.79119   0.39405   0.39715  -0.00310
  22        5PX         0.56038   0.32197   0.23842   0.08355
  23        5PY         0.56034   0.32195   0.23839   0.08356
  24        5PZ         0.30424   0.13261   0.17163  -0.03901
  25        6XX        -0.00184   0.00309  -0.00492   0.00801
  26        6YY        -0.00184   0.00309  -0.00493   0.00801
  27        6ZZ         0.02560   0.00482   0.02078  -0.01596
  28        6XY         0.00000   0.00000   0.00000   0.00000
  29        6XZ         0.00907   0.00348   0.00559  -0.00211
  30        6YZ         0.00907   0.00348   0.00559  -0.00211
          Condensed to atoms (all electrons):
               1          2
     1  O    7.824448   0.175552
     2  O    0.175552   7.824448
          Atomic-Atomic Spin Densities.
               1          2
     1  O    1.402330  -0.402330
     2  O   -0.402330   1.402330
 Mulliken charges and spin densities:
               1          2
     1  O    0.000000   1.000000
     2  O    0.000000   1.000000
 Sum of Mulliken charges =   0.00000   2.00000
 Mulliken charges and spin densities with hydrogens summed into heavy atoms:
               1          2
     1  O    0.000000   1.000000
     2  O    0.000000   1.000000
 Electronic spatial extent (au):  <R**2>=             43.6158
 Charge=              0.0000 electrons
 Dipole moment (field-independent basis, Debye):
    X=              0.0826    Y=              0.0000    Z=              0.0000  Tot=              0.0826
 Quadrupole moment (field-independent basis, Debye-Ang):
   XX=             -9.8734   YY=             -9.8731   ZZ=            -10.4543
   XY=              0.0000   XZ=              0.0000   YZ=              0.0000
 Traceless Quadrupole moment (field-independent basis, Debye-Ang):
   XX=              0.1936   YY=              0.1938   ZZ=             -0.3874
   XY=              0.0000   XZ=              0.0000   YZ=              0.0000
 Octapole moment (field-independent basis, Debye-Ang**2):
  XXX=              0.0550  YYY=              0.0000  ZZZ=              0.0000  XYY=              0.0183
  XXY=              0.0000  XXZ=              0.0000  XZZ=              0.0543  YZZ=              0.0000
  YYZ=              0.0000  XYZ=              0.0000
 Hexadecapole moment (field-independent basis, Debye-Ang**3):
 XXXX=             -6.4589 YYYY=             -6.4586 ZZZZ=            -28.1257 XXXY=              0.0000
 XXXZ=              0.0000 YYYX=              0.0000 YYYZ=              0.0000 ZZZX=              0.0000
 ZZZY=              0.0000 XXYY=             -2.1529 XXZZ=             -5.9506 YYZZ=             -5.9505
 XXYZ=              0.0000 YYXZ=              0.0000 ZZXY=              0.0000
 N-N= 2.782461435104D+01 E-N=-4.105570376801D+02  KE= 1.494118550453D+02
 Orbital energies and kinetic energies (alpha):
                                 1                 2
   1         O               -20.753582         29.143381
   2         O               -20.752934         29.153560
   3         O                -1.710492          2.943777
   4         O                -1.205280          3.468397
   5         O                -0.834319          2.436944
   6         O                -0.834318          2.437037
   7         O                -0.755414          2.738940
   8         O                -0.553500          3.064127
   9         O                -0.553484          3.064158
  10         V                 0.415823          3.307200
  11         V                 1.053209          3.371204
  12         V                 1.053866          3.375962
  13         V                 1.057078          3.874581
  14         V                 1.133378          2.900091
  15         V                 1.163835          3.195561
  16         V                 1.163953          3.195823
  17         V                 1.170711          2.457135
  18         V                 1.817020          2.992589
  19         V                 2.369493          3.795211
  20         V                 2.369500          3.795205
  21         V                 2.631202          3.992597
  22         V                 2.631202          3.992597
  23         V                 2.930580          4.316488
  24         V                 2.930580          4.316488
  25         V                 3.113806          5.081061
  26         V                 3.624228          5.066112
  27         V                 3.624234          5.066111
  28         V                 4.165927          6.163004
  29         V                 5.392842         13.376628
  30         V                 5.959462         13.979304
 Orbital energies and kinetic energies (beta):
                                 1                 2
   1         O               -20.699832         29.221420
   2         O               -20.698680         29.235629
   3         O                -1.578653          2.758767
   4         O                -0.997675          3.175639
   5         O                -0.695753          2.657729
   6         O                -0.568071          1.955864
   7         O                -0.567985          1.956486
   8         V                 0.110478          2.405339
   9         V                 0.110509          2.405451
  10         V                 0.493191          3.293036
  11         V                 1.086754          4.028003
  12         V                 1.166431          3.026021
  13         V                 1.168685          3.004145
  14         V                 1.176374          3.831762
  15         V                 1.183024          3.285818
  16         V                 1.289764          3.852841
  17         V                 1.289789          3.852527
  18         V                 1.858209          3.033303
  19         V                 2.442443          3.820584
  20         V                 2.442447          3.820578
  21         V                 2.749343          3.992597
  22         V                 2.749343          3.992597
  23         V                 3.078709          4.316488
  24         V                 3.078709          4.316488
  25         V                 3.184077          5.084597
  26         V                 3.701347          5.067619
  27         V                 3.701349          5.067618
  28         V                 4.212346          6.155072
  29         V                 5.449788         13.428804
  30         V                 6.013693         14.018450
 Total kinetic energy from orbitals= 1.494118550453D+02
                          Isotropic Fermi Contact Couplings
        Atom                 a.u.       MegaHertz       Gauss      10(-4) cm-1
     1  O(17)              0.31761     -96.26651     -34.35029     -32.11105
     2  O(17)              0.31761     -96.26651     -34.35029     -32.11105
 --------------------------------------------------------
       Center         ----  Spin Dipole Couplings  ----
                      3XX-RR        3YY-RR        3ZZ-RR
 --------------------------------------------------------
     1   Atom        1.330844      1.331121     -2.661965
     2   Atom        1.330844      1.331121     -2.661965
 --------------------------------------------------------
                        XY            XZ            YZ
 --------------------------------------------------------
     1   Atom        0.000000      0.018731      0.000000
     2   Atom        0.000000     -0.018731      0.000000
 --------------------------------------------------------


 ---------------------------------------------------------------------------------
              Anisotropic Spin Dipole Couplings in Principal Axis System
 ---------------------------------------------------------------------------------

       Atom             a.u.   MegaHertz   Gauss  10(-4) cm-1        Axes

              Baa    -2.6621   192.624    68.733    64.253 -0.0047  0.0000  1.0000
     1 O(17)  Bbb     1.3309   -96.305   -34.364   -32.124  1.0000  0.0000  0.0047
              Bcc     1.3311   -96.319   -34.369   -32.129  0.0000  1.0000  0.0000
 
              Baa    -2.6621   192.624    68.733    64.253  0.0047  0.0000  1.0000
     2 O(17)  Bbb     1.3309   -96.305   -34.364   -32.124  1.0000  0.0000 -0.0047
              Bcc     1.3311   -96.319   -34.369   -32.129  0.0000  1.0000  0.0000
 

 ---------------------------------------------------------------------------------

 No NMR shielding tensors so no spin-rotation constants.
 Leave Link  601 at Tue Sep 29 11:37:13 2015, MaxMem=    33554432 cpu:               0.2 elap:               0.2
 (Enter /home/gauss/gdvi01p/gdv/l9999.exe)
 Unable to Open any file for archive entry.
 1\1\GINC-MEDUSA\SP\UHF\CC-pVDZ\O2(3)\DBWY\29-Sep-2015\0\\#p uhf/cc-pVD
 Z gfinput pop=full nosymm 6D Field=X-100\\O2 cc-pVDZ\\0,3\O,0,0.,0.,0.
 608586\O,0,0.,0.,-0.608586\\Version=ES64L-GDVRevI.01+\HF=-149.6279636\
 S2=2.033624\S2-1=0.\S2A=2.000581\RMSD=1.605e-09\Dipole=0.0324877,0.,0.
 \Quadrupole=0.1439162,0.1440743,-0.2879906,0.,0.,0.\PG=D*H [C*(O1.O1)]
 \\@
 The archive entry for this job was punched.


 THERE'S SMALL CHOICE IN A BOWL OF ROTTEN APPLES.
                     SHAKESPEARE
 Job cpu time:       0 days  0 hours  0 minutes  0.9 seconds.
 Elapsed time:       0 days  0 hours  0 minutes  0.7 seconds.
 File lengths (MBytes):  RWF=      5 Int=      0 D2E=      0 Chk=      1 Scr=      1
 Normal termination of Gaussian DV at Tue Sep 29 11:37:13 2015.
