 Entering Gaussian System, Link 0=gdv
 Input=O2_cc-pVDZ_ROHF_field.com
 Output=O2_cc-pVDZ_ROHF_field.log
 Initial command:
 /home/gauss/gdvi01p/gdv/l1.exe "/home/GauScr/Gau-320.inp" -scrdir="/home/GauScr/"
 Entering Link 1 = /home/gauss/gdvi01p/gdv/l1.exe PID=       321.
  
 Copyright (c) 1988,1990,1992,1993,1995,1998,2003,2009,2014,
            Gaussian, Inc.  All Rights Reserved.
  
 This is the private, development version of
 the Gaussian(R) DV system of programs. It is based on
 the Gaussian(R) 09 system (copyright 2009, Gaussian, Inc.),
 the Gaussian(R) 03 system (copyright 2003, Gaussian, Inc.),
 the Gaussian(R) 98 system (copyright 1998, Gaussian, Inc.),
 the Gaussian(R) 94 system (copyright 1995, Gaussian, Inc.),
 the Gaussian 92(TM) system (copyright 1992, Gaussian, Inc.),
 the Gaussian 90(TM) system (copyright 1990, Gaussian, Inc.),
 the Gaussian 88(TM) system (copyright 1988, Gaussian, Inc.),
 the Gaussian 86(TM) system (copyright 1986, Carnegie Mellon
 University), and the Gaussian 82(TM) system (copyright 1983,
 Carnegie Mellon University). Gaussian is a federally registered
 trademark of Gaussian, Inc.
  
 This software contains proprietary and confidential information,
 including trade secrets, belonging to Gaussian, Inc.
  
 This software is provided under written license and may be
 used, copied, transmitted, or stored only in accord with that
 written license.
  
 The following legend is applicable only to US Government
 contracts under FAR:
  
                    RESTRICTED RIGHTS LEGEND
  
 Use, reproduction and disclosure by the US Government is
 subject to restrictions as set forth in subparagraphs (a)
 and (c) of the Commercial Computer Software - Restricted
 Rights clause in FAR 52.227-19.
  
 Gaussian, Inc.
 340 Quinnipiac St., Bldg. 40, Wallingford CT 06492
  
  
 ---------------------------------------------------------------
 Warning -- This program may not be used in any manner that
 competes with the business of Gaussian, Inc. or will provide
 assistance to any competitor of Gaussian, Inc.  The licensee
 of this program is prohibited from giving any competitor of
 Gaussian, Inc. access to this program.  By using this program,
 the user acknowledges that Gaussian, Inc. is engaged in the
 business of creating and licensing software in the field of
 computational chemistry and represents and warrants to the
 licensee that it is not a competitor of Gaussian, Inc. and that
 it will not use this program in any manner prohibited above.
 ---------------------------------------------------------------
  

 Cite this work as:
 Gaussian Development Version, Revision I.01+,
 M. J. Frisch, G. W. Trucks, H. B. Schlegel, G. E. Scuseria, 
 M. A. Robb, J. R. Cheeseman, G. Scalmani, V. Barone, B. Mennucci, 
 G. A. Petersson, H. Nakatsuji, M. Caricato, X. Li, H. P. Hratchian, 
 A. F. Izmaylov, J. Bloino, B. G. Janesko, F. Lipparini, G. Zheng, 
 J. L. Sonnenberg, W. Liang, M. Hada, M. Ehara, K. Toyota, R. Fukuda, 
 J. Hasegawa, M. Ishida, T. Nakajima, Y. Honda, O. Kitao, H. Nakai, 
 T. Vreven, J. A. Montgomery, Jr., J. E. Peralta, F. Ogliaro, 
 M. Bearpark, J. J. Heyd, E. Brothers, K. N. Kudin, V. N. Staroverov, 
 T. Keith, R. Kobayashi, J. Normand, K. Raghavachari, A. Rendell, 
 J. C. Burant, S. S. Iyengar, J. Tomasi, M. Cossi, N. Rega, 
 J. M. Millam, M. Klene, J. E. Knox, J. B. Cross, V. Bakken, 
 C. Adamo, J. Jaramillo, R. Gomperts, R. E. Stratmann, O. Yazyev, 
 A. J. Austin, R. Cammi, C. Pomelli, J. W. Ochterski, R. L. Martin, 
 K. Morokuma, V. G. Zakrzewski, G. A. Voth, P. Salvador, 
 J. J. Dannenberg, S. Dapprich, P. V. Parandekar, N. J. Mayhall, 
 A. D. Daniels, O. Farkas, J. B. Foresman, J. V. Ortiz, 
 J. Cioslowski, and D. J. Fox, Gaussian, Inc., Wallingford CT, 2010.
 
 *******************************************
 Gaussian DV:  ES64L-GDVRevI.01+ 11-Sep-2014
                 29-Sep-2015 
 *******************************************
 ------------------------------------------------------
 #p rohf/cc-pVDZ gfinput pop=full nosymm 6D Field=X-100
 ------------------------------------------------------
 1/38=1,172=1/1;
 2/12=2,15=1,17=6,18=5,40=1/2;
 3/5=16,8=2,11=2,14=1,15=-100,24=10,25=1,30=1,116=101/1,2,3;
 4//1;
 5/5=2,38=5/2;
 6/7=3,28=1/1;
 99/5=1,9=1/99;
 Leave Link    1 at Tue Sep 29 11:37:13 2015, MaxMem=           0 cpu:               0.0 elap:               0.0
 (Enter /home/gauss/gdvi01p/gdv/l101.exe)
 ----------
 O2 cc-pVDZ
 ----------
 Symbolic Z-matrix:
 Charge =  0 Multiplicity = 3
 O                     0.        0.        0.60859 
 O                     0.        0.       -0.60859 
 
 ITRead=  0  0
 MicOpt= -1 -1
 NAtoms=      2 NQM=        2 NQMF=       0 NMMI=      0 NMMIF=      0
                NMic=       0 NMicF=      0.
                    Isotopes and Nuclear Properties:
 (Nuclear quadrupole moments (NQMom) in fm**2, nuclear magnetic moments (NMagM)
  in nuclear magnetons)

  Atom         1           2
 IAtWgt=          16          16
 AtmWgt=  15.9949146  15.9949146
 NucSpn=           0           0
 AtZEff=   0.0000000   0.0000000
 NQMom=    0.0000000   0.0000000
 NMagM=    0.0000000   0.0000000
 AtZNuc=   8.0000000   8.0000000
 Leave Link  101 at Tue Sep 29 11:37:14 2015, MaxMem=    33554432 cpu:               0.1 elap:               0.1
 (Enter /home/gauss/gdvi01p/gdv/l202.exe)
                          Input orientation:                          
 ---------------------------------------------------------------------
 Center     Atomic      Atomic             Coordinates (Angstroms)
 Number     Number       Type             X           Y           Z
 ---------------------------------------------------------------------
      1          8           0        0.000000    0.000000    0.608586
      2          8           0        0.000000    0.000000   -0.608586
 ---------------------------------------------------------------------
 Symmetry turned off by external request.
 Stoichiometry    O2(3)
 Framework group  D*H[C*(O.O)]
 Deg. of freedom     1
 Full point group                 D*H     NOp   8
 Rotational constants (GHZ):      0.0000000     42.6541569     42.6541569
 Leave Link  202 at Tue Sep 29 11:37:14 2015, MaxMem=    33554432 cpu:               0.0 elap:               0.0
 (Enter /home/gauss/gdvi01p/gdv/l301.exe)
 Standard basis: CC-pVDZ (6D, 7F)
 Ernie: Thresh=  0.10000D-02 Tol=  0.10000D-05 Strict=F.
 Ernie:  4 primitive shells out of 44 were deleted.
 The following finite field(s) will be applied:
 An electric field of             -0.0100  0.0000  0.0000
 AO basis set in the form of general basis input (Overlap normalization):
      1 0
 S   7 1.00       0.000000000000
      0.1172000000D+05  0.7118644339D-03
      0.1759000000D+04  0.5485201992D-02
      0.4008000000D+03  0.2790992963D-01
      0.1137000000D+03  0.1051332075D+00
      0.3703000000D+02  0.2840024898D+00
      0.1327000000D+02  0.4516739459D+00
      0.5025000000D+01  0.2732081255D+00
 S   7 1.00       0.000000000000
      0.1172000000D+05  0.7690300460D-05
      0.4008000000D+03  0.3134845790D-03
      0.1137000000D+03 -0.2966148530D-02
      0.3703000000D+02 -0.1087535430D-01
      0.1327000000D+02 -0.1207538168D+00
      0.5025000000D+01 -0.1062752639D+00
      0.1013000000D+01  0.1095975478D+01
 S   1 1.00       0.000000000000
      0.3023000000D+00  0.1000000000D+01
 P   3 1.00       0.000000000000
      0.1770000000D+02  0.6267916628D-01
      0.3854000000D+01  0.3335365659D+00
      0.1046000000D+01  0.7412396416D+00
 P   1 1.00       0.000000000000
      0.2753000000D+00  0.1000000000D+01
 D   1 1.00       0.000000000000
      0.1185000000D+01  0.1000000000D+01
 ****
      2 0
 S   7 1.00       0.000000000000
      0.1172000000D+05  0.7118644339D-03
      0.1759000000D+04  0.5485201992D-02
      0.4008000000D+03  0.2790992963D-01
      0.1137000000D+03  0.1051332075D+00
      0.3703000000D+02  0.2840024898D+00
      0.1327000000D+02  0.4516739459D+00
      0.5025000000D+01  0.2732081255D+00
 S   7 1.00       0.000000000000
      0.1172000000D+05  0.7690300460D-05
      0.4008000000D+03  0.3134845790D-03
      0.1137000000D+03 -0.2966148530D-02
      0.3703000000D+02 -0.1087535430D-01
      0.1327000000D+02 -0.1207538168D+00
      0.5025000000D+01 -0.1062752639D+00
      0.1013000000D+01  0.1095975478D+01
 S   1 1.00       0.000000000000
      0.3023000000D+00  0.1000000000D+01
 P   3 1.00       0.000000000000
      0.1770000000D+02  0.6267916628D-01
      0.3854000000D+01  0.3335365659D+00
      0.1046000000D+01  0.7412396416D+00
 P   1 1.00       0.000000000000
      0.2753000000D+00  0.1000000000D+01
 D   1 1.00       0.000000000000
      0.1185000000D+01  0.1000000000D+01
 ****

    30 basis functions,    66 primitive gaussians,    30 cartesian basis functions
     9 alpha electrons        7 beta electrons
       nuclear repulsion energy        27.8246143510 Hartrees.
 IExCor=    0 DFT=F Ex=HF Corr=None ExCW=0 ScaHFX=  1.000000
 ScaDFX=  1.000000  1.000000  1.000000  1.000000 ScalE2=  1.000000  1.000000
 IRadAn=      0 IRanWt=     -1 IRanGd=            0 ICorTp=0 IEmpDi=  4
 NAtoms=    2 NActive=    2 NUniq=    2 SFac= 1.00D+00 NAtFMM=   60 NAOKFM=F Big=F
 Integral buffers will be    131072 words long.
 Raffenetti 2 integral format.
 Two-electron integral symmetry is turned off.
 Leave Link  301 at Tue Sep 29 11:37:14 2015, MaxMem=    33554432 cpu:               0.1 elap:               0.0
 (Enter /home/gauss/gdvi01p/gdv/l302.exe)
 NPDir=0 NMtPBC=     1 NCelOv=     1 NCel=       1 NClECP=     1 NCelD=      1
         NCelK=      1 NCelE2=     1 NClLst=     1 CellRange=     0.0.
 One-electron integrals computed using PRISM.
 One-electron integral symmetry used in STVInt
 NBasis=    30 RedAO= T EigKep=  1.51D-02  NBF=    30
 NBsUse=    30 1.00D-06 EigRej= -1.00D+00 NBFU=    30
 Leave Link  302 at Tue Sep 29 11:37:14 2015, MaxMem=    33554432 cpu:               0.1 elap:               0.1
 (Enter /home/gauss/gdvi01p/gdv/l303.exe)
 DipDrv:  MaxL=1.
 The nuclear repulsion energy is now        27.8246143510 hartrees.
 Leave Link  303 at Tue Sep 29 11:37:14 2015, MaxMem=    33554432 cpu:               0.0 elap:               0.0
 (Enter /home/gauss/gdvi01p/gdv/l401.exe)
 ExpMin= 2.75D-01 ExpMax= 1.17D+04 ExpMxC= 4.01D+02 IAcc=1 IRadAn=         1 AccDes= 0.00D+00
 Harris functional with IExCor=  205 and IRadAn=       1 diagonalized for initial guess.
 HarFok:  IExCor=  205 AccDes= 0.00D+00 IRadAn=         1 IDoV= 1 UseB2=F ITyADJ=14
 ICtDFT=  3500011 ScaDFX=  1.000000  1.000000  1.000000  1.000000
 FoFCou: FMM=F IPFlag=           0 FMFlag=      100000 FMFlg1=           0
         NFxFlg=           0 DoJE=T BraDBF=F KetDBF=T FulRan=T
         wScrn=  0.000000 ICntrl=       500 IOpCl=  0 I1Cent=   200000004 NGrid=           0
         NMat0=    1 NMatS0=      1 NMatT0=    0 NMatD0=    1 NMtDS0=    0 NMtDT0=    0
 Symmetry not used in FoFCou.
 Harris En= -149.559112467874    
 JPrj=0 DoOrth=F DoCkMO=F.
 Leave Link  401 at Tue Sep 29 11:37:14 2015, MaxMem=    33554432 cpu:               0.1 elap:               0.1
 (Enter /home/gauss/gdvi01p/gdv/l502.exe)
 Keep R1 and R2 ints in memory in canonical form, NReq=1052271.
 FoFCou: FMM=F IPFlag=           0 FMFlag=           0 FMFlg1=           0
         NFxFlg=           0 DoJE=F BraDBF=F KetDBF=F FulRan=T
         wScrn=  0.000000 ICntrl=       600 IOpCl=  0 I1Cent=           0 NGrid=           0
         NMat0=    1 NMatS0=    465 NMatT0=    0 NMatD0=    1 NMtDS0=    0 NMtDT0=    0
 Symmetry not used in FoFCou.
 Two-electron integral symmetry not used.
 Restricted open shell SCF:
 Using DIIS extrapolation, IDIIS=  1040.
 NGot=    33554432 LenX=    33335390 LenY=    33334049
 Requested convergence on RMS density matrix=1.00D-08 within 128 cycles.
 Requested convergence on MAX density matrix=1.00D-06.
 Requested convergence on             energy=1.00D-06.
 No special actions if energy rises.

 Cycle   1  Pass 1  IDiag  1:
 E= -149.588930843669    
 DIIS: error= 8.63D-02 at cycle   1 NSaved=   1.
 NSaved= 1 IEnMin= 1 EnMin= -149.588930843669     IErMin= 1 ErrMin= 8.63D-02
 ErrMax= 8.63D-02  0.00D+00 EMaxC= 1.00D-01 BMatC= 1.14D-01 BMatP= 1.14D-01
 IDIUse=3 WtCom= 1.37D-01 WtEn= 8.63D-01
 Coeff-Com:  0.100D+01
 Coeff-En:   0.100D+01
 Coeff:      0.100D+01
 Gap=     0.591 Goal=   None    Shift=    0.000
 GapD=    0.591 DampG=2.000 DampE=0.500 DampFc=1.0000 IDamp=-1.
 RMSDP=2.91D-03 MaxDP=1.99D-02              OVMax= 1.99D-02

 Cycle   2  Pass 1  IDiag  1:
 E= -149.607776562977     Delta-E=       -0.018845719308 Rises=F Damp=F
 DIIS: error= 4.34D-03 at cycle   2 NSaved=   2.
 NSaved= 2 IEnMin= 2 EnMin= -149.607776562977     IErMin= 2 ErrMin= 4.34D-03
 ErrMax= 4.34D-03  0.00D+00 EMaxC= 1.00D-01 BMatC= 6.54D-04 BMatP= 1.14D-01
 IDIUse=3 WtCom= 9.57D-01 WtEn= 4.34D-02
 Coeff-Com: -0.292D-01 0.103D+01
 Coeff-En:   0.000D+00 0.100D+01
 Coeff:     -0.279D-01 0.103D+01
 Gap=     0.583 Goal=   None    Shift=    0.000
 RMSDP=5.22D-04 MaxDP=6.35D-03 DE=-1.88D-02 OVMax= 4.06D-03

 Cycle   3  Pass 1  IDiag  1:
 E= -149.608052404657     Delta-E=       -0.000275841680 Rises=F Damp=F
 DIIS: error= 8.14D-04 at cycle   3 NSaved=   3.
 NSaved= 3 IEnMin= 3 EnMin= -149.608052404657     IErMin= 3 ErrMin= 8.14D-04
 ErrMax= 8.14D-04  0.00D+00 EMaxC= 1.00D-01 BMatC= 2.56D-05 BMatP= 6.54D-04
 IDIUse=3 WtCom= 9.92D-01 WtEn= 8.14D-03
 Coeff-Com: -0.928D-02 0.106D+00 0.903D+00
 Coeff-En:   0.000D+00 0.000D+00 0.100D+01
 Coeff:     -0.920D-02 0.105D+00 0.904D+00
 Gap=     0.582 Goal=   None    Shift=    0.000
 RMSDP=1.15D-04 MaxDP=1.06D-03 DE=-2.76D-04 OVMax= 9.17D-04

 Cycle   4  Pass 1  IDiag  1:
 E= -149.608065345740     Delta-E=       -0.000012941083 Rises=F Damp=F
 DIIS: error= 1.98D-04 at cycle   4 NSaved=   4.
 NSaved= 4 IEnMin= 4 EnMin= -149.608065345740     IErMin= 4 ErrMin= 1.98D-04
 ErrMax= 1.98D-04  0.00D+00 EMaxC= 1.00D-01 BMatC= 9.66D-07 BMatP= 2.56D-05
 IDIUse=3 WtCom= 9.98D-01 WtEn= 1.98D-03
 Coeff-Com: -0.522D-04-0.751D-02 0.787D-01 0.929D+00
 Coeff-En:   0.000D+00 0.000D+00 0.000D+00 0.100D+01
 Coeff:     -0.521D-04-0.750D-02 0.785D-01 0.929D+00
 Gap=     0.582 Goal=   None    Shift=    0.000
 RMSDP=2.88D-05 MaxDP=3.06D-04 DE=-1.29D-05 OVMax= 2.59D-04

 Cycle   5  Pass 1  IDiag  1:
 E= -149.608066091487     Delta-E=       -0.000000745747 Rises=F Damp=F
 DIIS: error= 4.45D-05 at cycle   5 NSaved=   5.
 NSaved= 5 IEnMin= 5 EnMin= -149.608066091487     IErMin= 5 ErrMin= 4.45D-05
 ErrMax= 4.45D-05  0.00D+00 EMaxC= 1.00D-01 BMatC= 6.69D-08 BMatP= 9.66D-07
 IDIUse=1 WtCom= 1.00D+00 WtEn= 0.00D+00
 Coeff-Com:  0.391D-03-0.711D-02-0.508D-01 0.854D-01 0.972D+00
 Coeff:      0.391D-03-0.711D-02-0.508D-01 0.854D-01 0.972D+00
 Gap=     0.582 Goal=   None    Shift=    0.000
 RMSDP=8.08D-06 MaxDP=8.05D-05 DE=-7.46D-07 OVMax= 6.38D-05

 Cycle   6  Pass 1  IDiag  1:
 E= -149.608066138176     Delta-E=       -0.000000046689 Rises=F Damp=F
 DIIS: error= 2.65D-06 at cycle   6 NSaved=   6.
 NSaved= 6 IEnMin= 6 EnMin= -149.608066138176     IErMin= 6 ErrMin= 2.65D-06
 ErrMax= 2.65D-06  0.00D+00 EMaxC= 1.00D-01 BMatC= 1.94D-10 BMatP= 6.69D-08
 IDIUse=1 WtCom= 1.00D+00 WtEn= 0.00D+00
 Coeff-Com: -0.721D-04 0.138D-02 0.968D-02-0.221D-01-0.186D+00 0.120D+01
 Coeff:     -0.721D-04 0.138D-02 0.968D-02-0.221D-01-0.186D+00 0.120D+01
 Gap=     0.582 Goal=   None    Shift=    0.000
 RMSDP=8.22D-07 MaxDP=5.81D-06 DE=-4.67D-08 OVMax= 5.42D-06

 Cycle   7  Pass 1  IDiag  1:
 E= -149.608066138639     Delta-E=       -0.000000000463 Rises=F Damp=F
 DIIS: error= 6.96D-07 at cycle   7 NSaved=   7.
 NSaved= 7 IEnMin= 7 EnMin= -149.608066138639     IErMin= 7 ErrMin= 6.96D-07
 ErrMax= 6.96D-07  0.00D+00 EMaxC= 1.00D-01 BMatC= 1.21D-11 BMatP= 1.94D-10
 IDIUse=1 WtCom= 1.00D+00 WtEn= 0.00D+00
 Coeff-Com: -0.210D-04 0.392D-03 0.291D-02-0.612D-02-0.555D-01 0.253D+00
 Coeff-Com:  0.805D+00
 Coeff:     -0.210D-04 0.392D-03 0.291D-02-0.612D-02-0.555D-01 0.253D+00
 Coeff:      0.805D+00
 Gap=     0.582 Goal=   None    Shift=    0.000
 RMSDP=1.61D-07 MaxDP=1.10D-06 DE=-4.63D-10 OVMax= 2.31D-06

 Cycle   8  Pass 1  IDiag  1:
 E= -149.608066138664     Delta-E=       -0.000000000025 Rises=F Damp=F
 DIIS: error= 3.68D-07 at cycle   8 NSaved=   8.
 NSaved= 8 IEnMin= 8 EnMin= -149.608066138664     IErMin= 8 ErrMin= 3.68D-07
 ErrMax= 3.68D-07  0.00D+00 EMaxC= 1.00D-01 BMatC= 2.06D-12 BMatP= 1.21D-11
 IDIUse=1 WtCom= 1.00D+00 WtEn= 0.00D+00
 Coeff-Com:  0.586D-05-0.111D-03-0.779D-03 0.175D-02 0.153D-01-0.616D-01
 Coeff-Com: -0.694D+00 0.174D+01
 Coeff:      0.586D-05-0.111D-03-0.779D-03 0.175D-02 0.153D-01-0.616D-01
 Coeff:     -0.694D+00 0.174D+01
 Gap=     0.582 Goal=   None    Shift=    0.000
 RMSDP=1.43D-07 MaxDP=8.56D-07 DE=-2.52D-11 OVMax= 2.28D-06

 Cycle   9  Pass 1  IDiag  1:
 E= -149.608066138673     Delta-E=       -0.000000000010 Rises=F Damp=F
 DIIS: error= 7.69D-08 at cycle   9 NSaved=   9.
 NSaved= 9 IEnMin= 9 EnMin= -149.608066138673     IErMin= 9 ErrMin= 7.69D-08
 ErrMax= 7.69D-08  0.00D+00 EMaxC= 1.00D-01 BMatC= 7.53D-14 BMatP= 2.06D-12
 IDIUse=1 WtCom= 1.00D+00 WtEn= 0.00D+00
 Coeff-Com: -0.120D-05 0.238D-04 0.143D-03-0.353D-03-0.293D-02 0.149D-01
 Coeff-Com:  0.962D-01-0.474D+00 0.137D+01
 Coeff:     -0.120D-05 0.238D-04 0.143D-03-0.353D-03-0.293D-02 0.149D-01
 Coeff:      0.962D-01-0.474D+00 0.137D+01
 Gap=     0.582 Goal=   None    Shift=    0.000
 RMSDP=3.32D-08 MaxDP=2.12D-07 DE=-9.52D-12 OVMax= 5.92D-07

 Cycle  10  Pass 1  IDiag  1:
 E= -149.608066138674     Delta-E=        0.000000000000 Rises=F Damp=F
 DIIS: error= 9.63D-09 at cycle  10 NSaved=  10.
 NSaved=10 IEnMin=10 EnMin= -149.608066138674     IErMin=10 ErrMin= 9.63D-09
 ErrMax= 9.63D-09  0.00D+00 EMaxC= 1.00D-01 BMatC= 2.76D-15 BMatP= 7.53D-14
 IDIUse=1 WtCom= 1.00D+00 WtEn= 0.00D+00
 Coeff-Com:  0.279D-06-0.562D-05-0.336D-04 0.833D-04 0.674D-03-0.499D-02
 Coeff-Com:  0.194D-01 0.520D-01-0.316D+00 0.125D+01
 Coeff:      0.279D-06-0.562D-05-0.336D-04 0.833D-04 0.674D-03-0.499D-02
 Coeff:      0.194D-01 0.520D-01-0.316D+00 0.125D+01
 Gap=     0.582 Goal=   None    Shift=    0.000
 RMSDP=3.14D-09 MaxDP=2.13D-08 DE=-1.14D-13 OVMax= 2.81D-08

 SCF Done:  E(ROHF) =  -149.608066139     A.U. after   10 cycles
            NFock= 10  Conv=0.31D-08     -V/T= 2.0017
 <Sx>= 0.0000 <Sy>= 0.0000 <Sz>= 1.0000 <S**2>= 2.0000 S= 1.0000
 <L.S>= 0.000000000000E+00
 KE= 1.493520643886D+02 PE=-4.104899629392D+02 EE= 8.370521806089D+01
 Annihilation of the first spin contaminant:
 S**2 before annihilation     2.0000,   after     2.0000
 Leave Link  502 at Tue Sep 29 11:37:14 2015, MaxMem=    33554432 cpu:               0.1 elap:               0.1
 (Enter /home/gauss/gdvi01p/gdv/l601.exe)
 Copying SCF densities to generalized density rwf, IOpCl= 0 IROHF=1.

 **********************************************************************

            Population analysis using the SCF density.

 **********************************************************************

 Alpha  occ. eigenvalues --  -20.72436 -20.72333  -1.62679  -1.07121  -0.71617
 Alpha  occ. eigenvalues --   -0.65865  -0.65855  -0.14115  -0.14113
 Alpha virt. eigenvalues --    0.44110   1.06572   1.09291   1.09394   1.14569
 Alpha virt. eigenvalues --    1.16820   1.20075   1.20083   1.82995   2.39168
 Alpha virt. eigenvalues --    2.39169   2.67125   2.67125   2.98117   2.98117
 Alpha virt. eigenvalues --    3.13655   3.64985   3.64985   4.18051   5.41200
 Alpha virt. eigenvalues --    5.97745
     Molecular Orbital Coefficients:
                           1         2         3         4         5
                           O         O         O         O         O
     Eigenvalues --   -20.72436 -20.72333  -1.62679  -1.07121  -0.71617
   1 1   O  1S          0.70487   0.70501  -0.14909  -0.15972  -0.05737
   2        2S          0.01122   0.01090   0.33014   0.36378   0.10723
   3        3S         -0.00063  -0.00232   0.26064   0.46111   0.27967
   4        4PX        -0.00002  -0.00002  -0.00155  -0.00320  -0.01816
   5        4PY         0.00000   0.00000   0.00000   0.00000   0.00000
   6        4PZ        -0.00121  -0.00117  -0.15992   0.13810   0.46279
   7        5PX         0.00000   0.00000  -0.00196  -0.00514  -0.01276
   8        5PY         0.00000   0.00000   0.00000   0.00000   0.00000
   9        5PZ         0.00048   0.00096  -0.04399   0.04983   0.24246
  10        6XX        -0.00092  -0.00081  -0.00629   0.00267   0.00506
  11        6YY        -0.00092  -0.00081  -0.00630   0.00266   0.00500
  12        6ZZ        -0.00115  -0.00037   0.03180  -0.01284  -0.04104
  13        6XY         0.00000   0.00000   0.00000   0.00000   0.00000
  14        6XZ         0.00000   0.00000   0.00019  -0.00016   0.00055
  15        6YZ         0.00000   0.00000   0.00000   0.00000   0.00000
  16 2   O  1S          0.70487  -0.70501  -0.14909   0.15972  -0.05737
  17        2S          0.01122  -0.01090   0.33014  -0.36378   0.10723
  18        3S         -0.00063   0.00232   0.26064  -0.46111   0.27967
  19        4PX        -0.00002   0.00002  -0.00155   0.00320  -0.01816
  20        4PY         0.00000   0.00000   0.00000   0.00000   0.00000
  21        4PZ         0.00121  -0.00117   0.15992   0.13810  -0.46279
  22        5PX         0.00000   0.00000  -0.00196   0.00514  -0.01276
  23        5PY         0.00000   0.00000   0.00000   0.00000   0.00000
  24        5PZ        -0.00048   0.00096   0.04399   0.04983  -0.24246
  25        6XX        -0.00092   0.00081  -0.00629  -0.00267   0.00506
  26        6YY        -0.00092   0.00081  -0.00630  -0.00266   0.00500
  27        6ZZ        -0.00115   0.00037   0.03180   0.01284  -0.04104
  28        6XY         0.00000   0.00000   0.00000   0.00000   0.00000
  29        6XZ         0.00000   0.00000  -0.00019  -0.00016  -0.00055
  30        6YZ         0.00000   0.00000   0.00000   0.00000   0.00000
                           6         7         8         9        10
                           O         O         O         O         V
     Eigenvalues --    -0.65865  -0.65855  -0.14115  -0.14113   0.44110
   1 1   O  1S          0.00000  -0.00308   0.00000  -0.00120  -0.09867
   2        2S          0.00000   0.00898   0.00000   0.00574   0.18704
   3        3S          0.00000   0.00945   0.00000  -0.00231   1.19483
   4        4PX         0.00000   0.44489   0.00000   0.53310  -0.00207
   5        4PY         0.44528   0.00000   0.53313   0.00000   0.00000
   6        4PZ         0.00000   0.01853   0.00000   0.00225  -0.41940
   7        5PX         0.00000   0.28482   0.00000   0.39354   0.00314
   8        5PY         0.28510   0.00000   0.39355   0.00000   0.00000
   9        5PZ         0.00000   0.01066   0.00000   0.00131  -1.16243
  10        6XX         0.00000  -0.00006   0.00000  -0.00025   0.00323
  11        6YY         0.00000   0.00129   0.00000   0.00096   0.00323
  12        6ZZ         0.00000  -0.00042   0.00000   0.00063  -0.02209
  13        6XY        -0.00078   0.00000  -0.00070   0.00000   0.00000
  14        6XZ         0.00000  -0.03243   0.00000   0.00492   0.00054
  15        6YZ        -0.03243   0.00000   0.00493   0.00000   0.00000
  16 2   O  1S          0.00000  -0.00308   0.00000   0.00120   0.09867
  17        2S          0.00000   0.00898   0.00000  -0.00574  -0.18704
  18        3S          0.00000   0.00945   0.00000   0.00231  -1.19483
  19        4PX         0.00000   0.44489   0.00000  -0.53310   0.00207
  20        4PY         0.44528   0.00000  -0.53313   0.00000   0.00000
  21        4PZ         0.00000  -0.01853   0.00000   0.00225  -0.41940
  22        5PX         0.00000   0.28482   0.00000  -0.39354  -0.00314
  23        5PY         0.28510   0.00000  -0.39355   0.00000   0.00000
  24        5PZ         0.00000  -0.01066   0.00000   0.00131  -1.16243
  25        6XX         0.00000  -0.00006   0.00000   0.00025  -0.00323
  26        6YY         0.00000   0.00129   0.00000  -0.00096  -0.00323
  27        6ZZ         0.00000  -0.00042   0.00000  -0.00063   0.02209
  28        6XY        -0.00078   0.00000   0.00070   0.00000   0.00000
  29        6XZ         0.00000   0.03243   0.00000   0.00492   0.00054
  30        6YZ         0.03243   0.00000   0.00493   0.00000   0.00000
                          11        12        13        14        15
                           V         V         V         V         V
     Eigenvalues --     1.06572   1.09291   1.09394   1.14569   1.16820
   1 1   O  1S          0.01084  -0.00102   0.00000   0.00957  -0.02444
   2        2S         -0.05455  -0.11243   0.00000  -0.61463  -0.60975
   3        3S         -0.76926   0.14931   0.00000   0.94181   0.64419
   4        4PX         0.02092   0.67449   0.00000  -0.06838  -0.05357
   5        4PY         0.00000   0.00000   0.68005   0.00000   0.00000
   6        4PZ        -0.68744  -0.01399   0.00000  -0.44520   0.38952
   7        5PX        -0.03237  -0.61814   0.00000   0.06389   0.05122
   8        5PY         0.00000   0.00000  -0.62354   0.00000   0.00000
   9        5PZ         1.25834   0.00895   0.00000   0.56401  -0.59354
  10        6XX         0.00486  -0.02078   0.00000  -0.13744  -0.07233
  11        6YY         0.00484  -0.02135   0.00000  -0.13738  -0.07227
  12        6ZZ        -0.13292  -0.03337   0.00000  -0.10276  -0.27893
  13        6XY         0.00000   0.00000   0.00033   0.00000   0.00000
  14        6XZ         0.00014  -0.03908   0.00000   0.00352   0.00363
  15        6YZ         0.00000   0.00000  -0.03940   0.00000   0.00000
  16 2   O  1S         -0.01084  -0.00102   0.00000   0.00957  -0.02444
  17        2S          0.05455  -0.11243   0.00000  -0.61463  -0.60975
  18        3S          0.76926   0.14931   0.00000   0.94181   0.64419
  19        4PX        -0.02092   0.67449   0.00000  -0.06838  -0.05357
  20        4PY         0.00000   0.00000   0.68005   0.00000   0.00000
  21        4PZ        -0.68744   0.01399   0.00000   0.44520  -0.38952
  22        5PX         0.03237  -0.61814   0.00000   0.06389   0.05122
  23        5PY         0.00000   0.00000  -0.62354   0.00000   0.00000
  24        5PZ         1.25834  -0.00895   0.00000  -0.56401   0.59354
  25        6XX        -0.00486  -0.02078   0.00000  -0.13744  -0.07233
  26        6YY        -0.00484  -0.02135   0.00000  -0.13738  -0.07227
  27        6ZZ         0.13292  -0.03337   0.00000  -0.10276  -0.27893
  28        6XY         0.00000   0.00000   0.00033   0.00000   0.00000
  29        6XZ         0.00014   0.03908   0.00000  -0.00352  -0.00363
  30        6YZ         0.00000   0.00000   0.03940   0.00000   0.00000
                          16        17        18        19        20
                           V         V         V         V         V
     Eigenvalues --     1.20075   1.20083   1.82995   2.39168   2.39169
   1 1   O  1S          0.00000   0.00129  -0.06498   0.00000  -0.00004
   2        2S          0.00000   0.01026  -1.21565   0.00000  -0.00003
   3        3S          0.00000  -0.06785   3.71178   0.00000   0.00062
   4        4PX         0.00000  -0.63314  -0.00539   0.00000   0.08973
   5        4PY        -0.63351   0.00000   0.00000   0.08973   0.00000
   6        4PZ         0.00000  -0.02092   0.09550   0.00000   0.00025
   7        5PX         0.00000   1.05354   0.01153   0.00000   0.03297
   8        5PY         1.05412   0.00000   0.00000   0.03297   0.00000
   9        5PZ         0.00000   0.06185  -1.71107   0.00000   0.00091
  10        6XX         0.00000   0.00281  -0.18903   0.00000  -0.00095
  11        6YY         0.00000   0.00339  -0.18901   0.00000   0.00017
  12        6ZZ         0.00000  -0.00145  -0.21164   0.00000   0.00058
  13        6XY        -0.00033   0.00000   0.00000  -0.00065   0.00000
  14        6XZ         0.00000   0.01085   0.00074   0.00000   0.64038
  15        6YZ         0.01084   0.00000   0.00000   0.64038   0.00000
  16 2   O  1S          0.00000  -0.00129   0.06498   0.00000  -0.00004
  17        2S          0.00000  -0.01026   1.21565   0.00000  -0.00003
  18        3S          0.00000   0.06785  -3.71178   0.00000   0.00062
  19        4PX         0.00000   0.63314   0.00539   0.00000   0.08973
  20        4PY         0.63351   0.00000   0.00000   0.08973   0.00000
  21        4PZ         0.00000  -0.02092   0.09550   0.00000  -0.00025
  22        5PX         0.00000  -1.05354  -0.01153   0.00000   0.03297
  23        5PY        -1.05412   0.00000   0.00000   0.03297   0.00000
  24        5PZ         0.00000   0.06185  -1.71107   0.00000  -0.00091
  25        6XX         0.00000  -0.00281   0.18903   0.00000  -0.00095
  26        6YY         0.00000  -0.00339   0.18901   0.00000   0.00017
  27        6ZZ         0.00000   0.00145   0.21164   0.00000   0.00058
  28        6XY         0.00033   0.00000   0.00000  -0.00065   0.00000
  29        6XZ         0.00000   0.01085   0.00074   0.00000  -0.64038
  30        6YZ         0.01084   0.00000   0.00000  -0.64038   0.00000
                          21        22        23        24        25
                           V         V         V         V         V
     Eigenvalues --     2.67125   2.67125   2.98117   2.98117   3.13655
   1 1   O  1S          0.00000   0.00000   0.00000   0.00000   0.00269
   2        2S          0.00000   0.00001   0.00000   0.00001  -0.34861
   3        3S          0.00000  -0.00001   0.00000  -0.00002   0.21518
   4        4PX         0.00000  -0.00026   0.00000  -0.00023  -0.00074
   5        4PY         0.00026   0.00000   0.00023   0.00000   0.00000
   6        4PZ         0.00000   0.00000   0.00000   0.00000   0.34777
   7        5PX         0.00000  -0.00065   0.00000  -0.00075   0.00045
   8        5PY         0.00065   0.00000   0.00075   0.00000   0.00000
   9        5PZ         0.00000   0.00000   0.00000   0.00001  -0.29862
  10        6XX         0.00002  -0.59947   0.00000  -0.62615  -0.36879
  11        6YY        -0.00002   0.59947   0.00000   0.62615  -0.36879
  12        6ZZ         0.00000   0.00000   0.00000   0.00000   0.60474
  13        6XY         0.69221   0.00002   0.72301   0.00000   0.00000
  14        6XZ         0.00000  -0.00058   0.00000  -0.00037  -0.00050
  15        6YZ         0.00058   0.00000   0.00037   0.00000   0.00000
  16 2   O  1S          0.00000   0.00000   0.00000   0.00000   0.00269
  17        2S          0.00000   0.00001   0.00000  -0.00001  -0.34861
  18        3S          0.00000  -0.00001   0.00000   0.00002   0.21518
  19        4PX         0.00000  -0.00026   0.00000   0.00023  -0.00074
  20        4PY         0.00026   0.00000  -0.00023   0.00000   0.00000
  21        4PZ         0.00000   0.00000   0.00000   0.00000  -0.34777
  22        5PX         0.00000  -0.00065   0.00000   0.00075   0.00045
  23        5PY         0.00065   0.00000  -0.00075   0.00000   0.00000
  24        5PZ         0.00000   0.00000   0.00000   0.00001   0.29862
  25        6XX         0.00002  -0.59947   0.00000   0.62615  -0.36879
  26        6YY        -0.00002   0.59947   0.00000  -0.62615  -0.36879
  27        6ZZ         0.00000   0.00000   0.00000   0.00000   0.60474
  28        6XY         0.69221   0.00002  -0.72301   0.00000   0.00000
  29        6XZ         0.00000   0.00058   0.00000  -0.00037   0.00050
  30        6YZ        -0.00058   0.00000   0.00037   0.00000   0.00000
                          26        27        28        29        30
                           V         V         V         V         V
     Eigenvalues --     3.64985   3.64985   4.18051   5.41200   5.97745
   1 1   O  1S          0.00000  -0.00004  -0.08760  -0.28581  -0.31236
   2        2S          0.00000   0.00118  -0.30173   1.25218   1.09816
   3        3S          0.00000  -0.00187   2.12783   0.82220   2.07448
   4        4PX         0.00000   0.01225  -0.00030  -0.00052  -0.00048
   5        4PY         0.01224   0.00000   0.00000   0.00000   0.00000
   6        4PZ         0.00000   0.00058  -0.32716  -0.01499   0.16216
   7        5PX         0.00000  -0.27281   0.00048   0.00049   0.00085
   8        5PY        -0.27280   0.00000   0.00000   0.00000   0.00000
   9        5PZ         0.00000   0.00084  -1.23037  -0.05166  -0.57324
  10        6XX         0.00000  -0.00060  -0.56336  -0.99571  -1.03793
  11        6YY         0.00000  -0.00006  -0.56335  -0.99571  -1.03793
  12        6ZZ         0.00000   0.00002   0.97411  -0.82696  -1.21571
  13        6XY        -0.00031   0.00000   0.00000   0.00000   0.00000
  14        6XZ         0.00000   0.83141  -0.00016  -0.00001  -0.00027
  15        6YZ         0.83141   0.00000   0.00000   0.00000   0.00000
  16 2   O  1S          0.00000   0.00004   0.08760  -0.28581   0.31236
  17        2S          0.00000  -0.00118   0.30173   1.25218  -1.09816
  18        3S          0.00000   0.00187  -2.12783   0.82220  -2.07448
  19        4PX         0.00000  -0.01225   0.00030  -0.00052   0.00048
  20        4PY        -0.01224   0.00000   0.00000   0.00000   0.00000
  21        4PZ         0.00000   0.00058  -0.32716   0.01499   0.16216
  22        5PX         0.00000   0.27281  -0.00048   0.00049  -0.00085
  23        5PY         0.27280   0.00000   0.00000   0.00000   0.00000
  24        5PZ         0.00000   0.00084  -1.23037   0.05166  -0.57324
  25        6XX         0.00000   0.00060   0.56336  -0.99571   1.03793
  26        6YY         0.00000   0.00006   0.56335  -0.99571   1.03793
  27        6ZZ         0.00000  -0.00002  -0.97411  -0.82696   1.21571
  28        6XY         0.00031   0.00000   0.00000   0.00000   0.00000
  29        6XZ         0.00000   0.83141  -0.00016   0.00001  -0.00027
  30        6YZ         0.83141   0.00000   0.00000   0.00000   0.00000
     Alpha Density Matrix:
                           1         2         3         4         5
   1 1   O  1S          1.04492
   2        2S         -0.09791   0.25319
   3        3S         -0.13066   0.28382   0.35887
   4        4PX        -0.00025   0.00343  -0.00398   0.48247
   5        4PY         0.00000   0.00000   0.00000   0.00000   0.48249
   6        4PZ        -0.02650   0.04722   0.15160   0.00085   0.00000
   7        5PX         0.00050   0.00093  -0.00467   0.33676   0.00000
   8        5PY         0.00000   0.00000   0.00000   0.00000   0.33676
   9        5PZ        -0.01433   0.02972   0.07942   0.00095   0.00000
  10        6XX        -0.00100  -0.00059   0.00101  -0.00025   0.00000
  11        6YY        -0.00100  -0.00058   0.00099   0.00100   0.00000
  12        6ZZ        -0.00141   0.00141  -0.00911   0.00089   0.00000
  13        6XY         0.00000   0.00000   0.00000   0.00000  -0.00072
  14        6XZ         0.00006  -0.00020  -0.00019  -0.01181   0.00000
  15        6YZ         0.00000   0.00000   0.00000   0.00000  -0.01181
  16 2   O  1S         -0.00018   0.00293   0.01990   0.00004   0.00000
  17        2S          0.00293  -0.01179  -0.05159  -0.00036   0.00000
  18        3S          0.01990  -0.05159  -0.06639   0.00142   0.00000
  19        4PX         0.00004  -0.00036   0.00142  -0.08595   0.00000
  20        4PY         0.00000   0.00000   0.00000   0.00000  -0.08595
  21        4PZ        -0.01927   0.05326  -0.02425   0.00067   0.00000
  22        5PX        -0.00020   0.00016   0.00189  -0.08287   0.00000
  23        5PY         0.00000   0.00000   0.00000   0.00000  -0.08287
  24        5PZ        -0.00024   0.00657  -0.03347   0.00013   0.00000
  25        6XX         0.00099  -0.00251  -0.00146   0.00003   0.00000
  26        6YY         0.00099  -0.00251  -0.00146  -0.00001   0.00000
  27        6ZZ        -0.00499   0.01075   0.00273   0.00013   0.00000
  28        6XY         0.00000   0.00000   0.00000   0.00000   0.00003
  29        6XZ        -0.00002   0.00014   0.00001   0.01706   0.00000
  30        6YZ         0.00000   0.00000   0.00000   0.00000   0.01706
                           6         7         8         9        10
   6        4PZ         0.25917
   7        5PX        -0.00014   0.23619
   8        5PY         0.00000   0.00000   0.23617
   9        5PZ         0.12632   0.00029   0.00000   0.06332
  10        6XX         0.00371  -0.00018   0.00000   0.00163   0.00007
  11        6YY         0.00372   0.00068   0.00000   0.00164   0.00007
  12        6ZZ        -0.02586   0.00066   0.00000  -0.01199  -0.00044
  13        6XY         0.00000   0.00000  -0.00050   0.00000   0.00000
  14        6XZ        -0.00039  -0.00731   0.00000  -0.00022   0.00000
  15        6YZ         0.00000   0.00000  -0.00731   0.00000   0.00000
  16 2   O  1S          0.01927  -0.00020   0.00000   0.00024   0.00099
  17        2S         -0.05326   0.00016   0.00000  -0.00657  -0.00251
  18        3S          0.02425   0.00189   0.00000   0.03347  -0.00146
  19        4PX        -0.00067  -0.08287   0.00000  -0.00013   0.00003
  20        4PY         0.00000   0.00000  -0.08287   0.00000   0.00000
  21        4PZ        -0.22102   0.00049   0.00000  -0.11256  -0.00298
  22        5PX        -0.00049  -0.07361   0.00000  -0.00023   0.00004
  23        5PY         0.00000   0.00000  -0.07360   0.00000   0.00000
  24        5PZ        -0.11256   0.00023   0.00000  -0.05835  -0.00137
  25        6XX         0.00298   0.00004   0.00000   0.00137   0.00006
  26        6YY         0.00298  -0.00005   0.00000   0.00137   0.00006
  27        6ZZ        -0.02232   0.00003   0.00000  -0.01072  -0.00037
  28        6XY         0.00000   0.00000   0.00005   0.00000   0.00000
  29        6XZ         0.00036   0.01118   0.00000   0.00022  -0.00001
  30        6YZ         0.00000   0.00000   0.01118   0.00000   0.00000
                          11        12        13        14        15
  11        6YY         0.00008
  12        6ZZ        -0.00044   0.00286
  13        6XY         0.00000   0.00000   0.00000
  14        6XZ        -0.00004   0.00000   0.00000   0.00108
  15        6YZ         0.00000   0.00000   0.00002   0.00000   0.00108
  16 2   O  1S          0.00099  -0.00499   0.00000   0.00002   0.00000
  17        2S         -0.00251   0.01075   0.00000  -0.00014   0.00000
  18        3S         -0.00146   0.00273   0.00000  -0.00001   0.00000
  19        4PX        -0.00001   0.00013   0.00000  -0.01706   0.00000
  20        4PY         0.00000   0.00000   0.00003   0.00000  -0.01706
  21        4PZ        -0.00298   0.02232   0.00000   0.00036   0.00000
  22        5PX        -0.00005   0.00003   0.00000  -0.01118   0.00000
  23        5PY         0.00000   0.00000   0.00005   0.00000  -0.01118
  24        5PZ        -0.00137   0.01072   0.00000   0.00022   0.00000
  25        6XX         0.00006  -0.00037   0.00000   0.00001   0.00000
  26        6YY         0.00006  -0.00037   0.00000  -0.00004   0.00000
  27        6ZZ        -0.00037   0.00253   0.00000  -0.00001   0.00000
  28        6XY         0.00000   0.00000   0.00000   0.00000   0.00003
  29        6XZ         0.00004   0.00001   0.00000  -0.00103   0.00000
  30        6YZ         0.00000   0.00000  -0.00003   0.00000  -0.00103
                          16        17        18        19        20
  16 2   O  1S          1.04492
  17        2S         -0.09791   0.25319
  18        3S         -0.13066   0.28382   0.35887
  19        4PX        -0.00025   0.00343  -0.00398   0.48247
  20        4PY         0.00000   0.00000   0.00000   0.00000   0.48249
  21        4PZ         0.02650  -0.04722  -0.15160  -0.00085   0.00000
  22        5PX         0.00050   0.00093  -0.00467   0.33676   0.00000
  23        5PY         0.00000   0.00000   0.00000   0.00000   0.33676
  24        5PZ         0.01433  -0.02972  -0.07942  -0.00095   0.00000
  25        6XX        -0.00100  -0.00059   0.00101  -0.00025   0.00000
  26        6YY        -0.00100  -0.00058   0.00099   0.00100   0.00000
  27        6ZZ        -0.00141   0.00141  -0.00911   0.00089   0.00000
  28        6XY         0.00000   0.00000   0.00000   0.00000  -0.00072
  29        6XZ        -0.00006   0.00020   0.00019   0.01181   0.00000
  30        6YZ         0.00000   0.00000   0.00000   0.00000   0.01181
                          21        22        23        24        25
  21        4PZ         0.25917
  22        5PX         0.00014   0.23619
  23        5PY         0.00000   0.00000   0.23617
  24        5PZ         0.12632  -0.00029   0.00000   0.06332
  25        6XX        -0.00371  -0.00018   0.00000  -0.00163   0.00007
  26        6YY        -0.00372   0.00068   0.00000  -0.00164   0.00007
  27        6ZZ         0.02586   0.00066   0.00000   0.01199  -0.00044
  28        6XY         0.00000   0.00000  -0.00050   0.00000   0.00000
  29        6XZ        -0.00039   0.00731   0.00000  -0.00022   0.00000
  30        6YZ         0.00000   0.00000   0.00731   0.00000   0.00000
                          26        27        28        29        30
  26        6YY         0.00008
  27        6ZZ        -0.00044   0.00286
  28        6XY         0.00000   0.00000   0.00000
  29        6XZ         0.00004   0.00000   0.00000   0.00108
  30        6YZ         0.00000   0.00000  -0.00002   0.00000   0.00108
     Beta Density Matrix:
                           1         2         3         4         5
   1 1   O  1S          1.04492
   2        2S         -0.09791   0.25315
   3        3S         -0.13066   0.28383   0.35887
   4        4PX         0.00039   0.00037  -0.00275   0.19827
   5        4PY         0.00000   0.00000   0.00000   0.00000   0.19827
   6        4PZ        -0.02650   0.04720   0.15160  -0.00036   0.00000
   7        5PX         0.00097  -0.00133  -0.00376   0.12696   0.00000
   8        5PY         0.00000   0.00000   0.00000   0.00000   0.12695
   9        5PZ        -0.01433   0.02971   0.07942   0.00025   0.00000
  10        6XX        -0.00100  -0.00059   0.00101  -0.00012   0.00000
  11        6YY        -0.00100  -0.00058   0.00100   0.00048   0.00000
  12        6ZZ        -0.00141   0.00141  -0.00911   0.00055   0.00000
  13        6XY         0.00000   0.00000   0.00000   0.00000  -0.00035
  14        6XZ         0.00007  -0.00023  -0.00017  -0.01444   0.00000
  15        6YZ         0.00000   0.00000   0.00000   0.00000  -0.01444
  16 2   O  1S         -0.00018   0.00292   0.01990  -0.00060   0.00000
  17        2S          0.00292  -0.01176  -0.05160   0.00270   0.00000
  18        3S          0.01990  -0.05160  -0.06639   0.00020   0.00000
  19        4PX        -0.00060   0.00270   0.00020   0.19825   0.00000
  20        4PY         0.00000   0.00000   0.00000   0.00000   0.19827
  21        4PZ        -0.01926   0.05324  -0.02424  -0.00053   0.00000
  22        5PX        -0.00067   0.00241   0.00098   0.12693   0.00000
  23        5PY         0.00000   0.00000   0.00000   0.00000   0.12695
  24        5PZ        -0.00024   0.00656  -0.03347  -0.00057   0.00000
  25        6XX         0.00099  -0.00251  -0.00146  -0.00010   0.00000
  26        6YY         0.00099  -0.00250  -0.00146   0.00050   0.00000
  27        6ZZ        -0.00499   0.01075   0.00272   0.00047   0.00000
  28        6XY         0.00000   0.00000   0.00000   0.00000  -0.00035
  29        6XZ        -0.00001   0.00011   0.00003   0.01444   0.00000
  30        6YZ         0.00000   0.00000   0.00000   0.00000   0.01444
                           6         7         8         9        10
   6        4PZ         0.25916
   7        5PX        -0.00102   0.08132
   8        5PY         0.00000   0.00000   0.08128
   9        5PZ         0.12632  -0.00023   0.00000   0.06332
  10        6XX         0.00372  -0.00008   0.00000   0.00163   0.00007
  11        6YY         0.00371   0.00030   0.00000   0.00163   0.00007
  12        6ZZ        -0.02586   0.00041   0.00000  -0.01200  -0.00044
  13        6XY         0.00000   0.00000  -0.00022   0.00000   0.00000
  14        6XZ        -0.00040  -0.00924   0.00000  -0.00023   0.00000
  15        6YZ         0.00000   0.00000  -0.00924   0.00000   0.00000
  16 2   O  1S          0.01926  -0.00067   0.00000   0.00024   0.00099
  17        2S         -0.05324   0.00241   0.00000  -0.00656  -0.00251
  18        3S          0.02424   0.00098   0.00000   0.03347  -0.00146
  19        4PX         0.00053   0.12693   0.00000   0.00057  -0.00010
  20        4PY         0.00000   0.00000   0.12695   0.00000   0.00000
  21        4PZ        -0.22102  -0.00040   0.00000  -0.11256  -0.00298
  22        5PX         0.00040   0.08126   0.00000   0.00029  -0.00005
  23        5PY         0.00000   0.00000   0.08128   0.00000   0.00000
  24        5PZ        -0.11256  -0.00029   0.00000  -0.05835  -0.00137
  25        6XX         0.00298  -0.00005   0.00000   0.00137   0.00006
  26        6YY         0.00298   0.00033   0.00000   0.00137   0.00006
  27        6ZZ        -0.02231   0.00027   0.00000  -0.01072  -0.00037
  28        6XY         0.00000   0.00000  -0.00022   0.00000   0.00000
  29        6XZ         0.00035   0.00924   0.00000   0.00021   0.00000
  30        6YZ         0.00000   0.00000   0.00924   0.00000   0.00000
                          11        12        13        14        15
  11        6YY         0.00007
  12        6ZZ        -0.00044   0.00286
  13        6XY         0.00000   0.00000   0.00000
  14        6XZ        -0.00004   0.00000   0.00000   0.00105
  15        6YZ         0.00000   0.00000   0.00003   0.00000   0.00105
  16 2   O  1S          0.00099  -0.00499   0.00000   0.00001   0.00000
  17        2S         -0.00250   0.01075   0.00000  -0.00011   0.00000
  18        3S         -0.00146   0.00272   0.00000  -0.00003   0.00000
  19        4PX         0.00050   0.00047   0.00000  -0.01444   0.00000
  20        4PY         0.00000   0.00000  -0.00035   0.00000  -0.01444
  21        4PZ        -0.00298   0.02231   0.00000   0.00035   0.00000
  22        5PX         0.00033   0.00027   0.00000  -0.00924   0.00000
  23        5PY         0.00000   0.00000  -0.00022   0.00000  -0.00924
  24        5PZ        -0.00137   0.01072   0.00000   0.00021   0.00000
  25        6XX         0.00006  -0.00037   0.00000   0.00000   0.00000
  26        6YY         0.00006  -0.00037   0.00000  -0.00004   0.00000
  27        6ZZ        -0.00037   0.00253   0.00000   0.00000   0.00000
  28        6XY         0.00000   0.00000   0.00000   0.00000   0.00003
  29        6XZ         0.00004   0.00000   0.00000  -0.00105   0.00000
  30        6YZ         0.00000   0.00000  -0.00003   0.00000  -0.00105
                          16        17        18        19        20
  16 2   O  1S          1.04492
  17        2S         -0.09791   0.25315
  18        3S         -0.13066   0.28383   0.35887
  19        4PX         0.00039   0.00037  -0.00275   0.19827
  20        4PY         0.00000   0.00000   0.00000   0.00000   0.19827
  21        4PZ         0.02650  -0.04720  -0.15160   0.00036   0.00000
  22        5PX         0.00097  -0.00133  -0.00376   0.12696   0.00000
  23        5PY         0.00000   0.00000   0.00000   0.00000   0.12695
  24        5PZ         0.01433  -0.02971  -0.07942  -0.00025   0.00000
  25        6XX        -0.00100  -0.00059   0.00101  -0.00012   0.00000
  26        6YY        -0.00100  -0.00058   0.00100   0.00048   0.00000
  27        6ZZ        -0.00141   0.00141  -0.00911   0.00055   0.00000
  28        6XY         0.00000   0.00000   0.00000   0.00000  -0.00035
  29        6XZ        -0.00007   0.00023   0.00017   0.01444   0.00000
  30        6YZ         0.00000   0.00000   0.00000   0.00000   0.01444
                          21        22        23        24        25
  21        4PZ         0.25916
  22        5PX         0.00102   0.08132
  23        5PY         0.00000   0.00000   0.08128
  24        5PZ         0.12632   0.00023   0.00000   0.06332
  25        6XX        -0.00372  -0.00008   0.00000  -0.00163   0.00007
  26        6YY        -0.00371   0.00030   0.00000  -0.00163   0.00007
  27        6ZZ         0.02586   0.00041   0.00000   0.01200  -0.00044
  28        6XY         0.00000   0.00000  -0.00022   0.00000   0.00000
  29        6XZ        -0.00040   0.00924   0.00000  -0.00023   0.00000
  30        6YZ         0.00000   0.00000   0.00924   0.00000   0.00000
                          26        27        28        29        30
  26        6YY         0.00007
  27        6ZZ        -0.00044   0.00286
  28        6XY         0.00000   0.00000   0.00000
  29        6XZ         0.00004   0.00000   0.00000   0.00105
  30        6YZ         0.00000   0.00000  -0.00003   0.00000   0.00105
    Full Mulliken population analysis:
                           1         2         3         4         5
   1 1   O  1S          2.08985
   2        2S         -0.04409   0.50634
   3        3S         -0.04803   0.44970   0.71774
   4        4PX         0.00000   0.00000   0.00000   0.68074
   5        4PY         0.00000   0.00000   0.00000   0.00000   0.68076
   6        4PZ         0.00000   0.00000   0.00000   0.00000   0.00000
   7        5PX         0.00000   0.00000   0.00000   0.23245   0.00000
   8        5PY         0.00000   0.00000   0.00000   0.00000   0.23245
   9        5PZ         0.00000   0.00000   0.00000   0.00000   0.00000
  10        6XX        -0.00012  -0.00077   0.00134   0.00000   0.00000
  11        6YY        -0.00012  -0.00077   0.00132   0.00000   0.00000
  12        6ZZ        -0.00017   0.00186  -0.01211   0.00000   0.00000
  13        6XY         0.00000   0.00000   0.00000   0.00000   0.00000
  14        6XZ         0.00000   0.00000   0.00000   0.00000   0.00000
  15        6YZ         0.00000   0.00000   0.00000   0.00000   0.00000
  16 2   O  1S          0.00000   0.00002   0.00157   0.00000   0.00000
  17        2S          0.00002  -0.00188  -0.02427   0.00000   0.00000
  18        3S          0.00157  -0.02427  -0.05968   0.00000   0.00000
  19        4PX         0.00000   0.00000   0.00000   0.00432   0.00000
  20        4PY         0.00000   0.00000   0.00000   0.00000   0.00432
  21        4PZ        -0.00037   0.01362  -0.00928   0.00000   0.00000
  22        5PX         0.00000   0.00000   0.00000   0.00681   0.00000
  23        5PY         0.00000   0.00000   0.00000   0.00000   0.00682
  24        5PZ        -0.00005   0.00607  -0.03940   0.00000   0.00000
  25        6XX         0.00000  -0.00019  -0.00054   0.00000   0.00000
  26        6YY         0.00000  -0.00019  -0.00054   0.00000   0.00000
  27        6ZZ        -0.00021   0.00469   0.00167   0.00000   0.00000
  28        6XY         0.00000   0.00000   0.00000   0.00000   0.00000
  29        6XZ         0.00000   0.00000   0.00000   0.00311   0.00000
  30        6YZ         0.00000   0.00000   0.00000   0.00000   0.00311
                           6         7         8         9        10
   6        4PZ         0.51833
   7        5PX         0.00000   0.31751
   8        5PY         0.00000   0.00000   0.31745
   9        5PZ         0.12664   0.00000   0.00000   0.12664
  10        6XX         0.00000   0.00000   0.00000   0.00000   0.00015
  11        6YY         0.00000   0.00000   0.00000   0.00000   0.00005
  12        6ZZ         0.00000   0.00000   0.00000   0.00000  -0.00029
  13        6XY         0.00000   0.00000   0.00000   0.00000   0.00000
  14        6XZ         0.00000   0.00000   0.00000   0.00000   0.00000
  15        6YZ         0.00000   0.00000   0.00000   0.00000   0.00000
  16 2   O  1S         -0.00037   0.00000   0.00000  -0.00005   0.00000
  17        2S          0.01362   0.00000   0.00000   0.00607  -0.00019
  18        3S         -0.00928   0.00000   0.00000  -0.03940  -0.00054
  19        4PX         0.00000   0.00681   0.00000   0.00000   0.00000
  20        4PY         0.00000   0.00000   0.00682   0.00000   0.00000
  21        4PZ         0.08273   0.00000   0.00000   0.04692  -0.00036
  22        5PX         0.00000   0.00369   0.00000   0.00000   0.00000
  23        5PY         0.00000   0.00000   0.00371   0.00000   0.00000
  24        5PZ         0.04692   0.00000   0.00000   0.02572  -0.00107
  25        6XX        -0.00036   0.00000   0.00000  -0.00107   0.00001
  26        6YY        -0.00036   0.00000   0.00000  -0.00107   0.00000
  27        6ZZ         0.01329   0.00000   0.00000   0.00905  -0.00008
  28        6XY         0.00000   0.00000   0.00000   0.00000   0.00000
  29        6XZ         0.00000   0.00320   0.00000   0.00000   0.00000
  30        6YZ         0.00000   0.00000   0.00320   0.00000   0.00000
                          11        12        13        14        15
  11        6YY         0.00015
  12        6ZZ        -0.00029   0.00573
  13        6XY         0.00000   0.00000   0.00000
  14        6XZ         0.00000   0.00000   0.00000   0.00213
  15        6YZ         0.00000   0.00000   0.00000   0.00000   0.00213
  16 2   O  1S          0.00000  -0.00021   0.00000   0.00000   0.00000
  17        2S         -0.00019   0.00469   0.00000   0.00000   0.00000
  18        3S         -0.00054   0.00167   0.00000   0.00000   0.00000
  19        4PX         0.00000   0.00000   0.00000   0.00311   0.00000
  20        4PY         0.00000   0.00000   0.00000   0.00000   0.00311
  21        4PZ        -0.00036   0.01329   0.00000   0.00000   0.00000
  22        5PX         0.00000   0.00000   0.00000   0.00320   0.00000
  23        5PY         0.00000   0.00000   0.00000   0.00000   0.00320
  24        5PZ        -0.00107   0.00905   0.00000   0.00000   0.00000
  25        6XX         0.00000  -0.00008   0.00000   0.00000   0.00000
  26        6YY         0.00001  -0.00008   0.00000   0.00000   0.00000
  27        6ZZ        -0.00008   0.00219   0.00000   0.00000   0.00000
  28        6XY         0.00000   0.00000   0.00000   0.00000   0.00000
  29        6XZ         0.00000   0.00000   0.00000   0.00048   0.00000
  30        6YZ         0.00000   0.00000   0.00000   0.00000   0.00048
                          16        17        18        19        20
  16 2   O  1S          2.08985
  17        2S         -0.04409   0.50634
  18        3S         -0.04803   0.44970   0.71774
  19        4PX         0.00000   0.00000   0.00000   0.68074
  20        4PY         0.00000   0.00000   0.00000   0.00000   0.68076
  21        4PZ         0.00000   0.00000   0.00000   0.00000   0.00000
  22        5PX         0.00000   0.00000   0.00000   0.23245   0.00000
  23        5PY         0.00000   0.00000   0.00000   0.00000   0.23245
  24        5PZ         0.00000   0.00000   0.00000   0.00000   0.00000
  25        6XX        -0.00012  -0.00077   0.00134   0.00000   0.00000
  26        6YY        -0.00012  -0.00077   0.00132   0.00000   0.00000
  27        6ZZ        -0.00017   0.00186  -0.01211   0.00000   0.00000
  28        6XY         0.00000   0.00000   0.00000   0.00000   0.00000
  29        6XZ         0.00000   0.00000   0.00000   0.00000   0.00000
  30        6YZ         0.00000   0.00000   0.00000   0.00000   0.00000
                          21        22        23        24        25
  21        4PZ         0.51833
  22        5PX         0.00000   0.31751
  23        5PY         0.00000   0.00000   0.31745
  24        5PZ         0.12664   0.00000   0.00000   0.12664
  25        6XX         0.00000   0.00000   0.00000   0.00000   0.00015
  26        6YY         0.00000   0.00000   0.00000   0.00000   0.00005
  27        6ZZ         0.00000   0.00000   0.00000   0.00000  -0.00029
  28        6XY         0.00000   0.00000   0.00000   0.00000   0.00000
  29        6XZ         0.00000   0.00000   0.00000   0.00000   0.00000
  30        6YZ         0.00000   0.00000   0.00000   0.00000   0.00000
                          26        27        28        29        30
  26        6YY         0.00015
  27        6ZZ        -0.00029   0.00573
  28        6XY         0.00000   0.00000   0.00000
  29        6XZ         0.00000   0.00000   0.00000   0.00213
  30        6YZ         0.00000   0.00000   0.00000   0.00000   0.00213
     Gross orbital populations:
                         Total     Alpha     Beta      Spin
   1 1   O  1S          1.99827   0.99913   0.99913   0.00000
   2        2S          0.91014   0.45508   0.45505   0.00003
   3        3S          0.97949   0.48974   0.48975  -0.00001
   4        4PX         0.92744   0.63684   0.29060   0.34625
   5        4PY         0.92746   0.63687   0.29059   0.34627
   6        4PZ         0.79116   0.39558   0.39558   0.00001
   7        5PX         0.56367   0.35840   0.20527   0.15313
   8        5PY         0.56362   0.35838   0.20524   0.15314
   9        5PZ         0.29947   0.14974   0.14973   0.00000
  10        6XX        -0.00189  -0.00094  -0.00094   0.00000
  11        6YY        -0.00189  -0.00094  -0.00095   0.00000
  12        6ZZ         0.02523   0.01262   0.01262   0.00000
  13        6XY         0.00000   0.00000   0.00000   0.00000
  14        6XZ         0.00892   0.00475   0.00417   0.00058
  15        6YZ         0.00892   0.00475   0.00417   0.00058
  16 2   O  1S          1.99827   0.99913   0.99913   0.00000
  17        2S          0.91014   0.45508   0.45505   0.00003
  18        3S          0.97949   0.48974   0.48975  -0.00001
  19        4PX         0.92744   0.63684   0.29060   0.34625
  20        4PY         0.92746   0.63687   0.29059   0.34627
  21        4PZ         0.79116   0.39558   0.39558   0.00001
  22        5PX         0.56367   0.35840   0.20527   0.15313
  23        5PY         0.56362   0.35838   0.20524   0.15314
  24        5PZ         0.29947   0.14974   0.14973   0.00000
  25        6XX        -0.00189  -0.00094  -0.00094   0.00000
  26        6YY        -0.00189  -0.00094  -0.00095   0.00000
  27        6ZZ         0.02523   0.01262   0.01262   0.00000
  28        6XY         0.00000   0.00000   0.00000   0.00000
  29        6XZ         0.00892   0.00475   0.00417   0.00058
  30        6YZ         0.00892   0.00475   0.00417   0.00058
          Condensed to atoms (all electrons):
               1          2
     1  O    7.843700   0.156300
     2  O    0.156300   7.843700
          Atomic-Atomic Spin Densities.
               1          2
     1  O    1.298948  -0.298948
     2  O   -0.298948   1.298948
 Mulliken charges and spin densities:
               1          2
     1  O    0.000000   1.000000
     2  O    0.000000   1.000000
 Sum of Mulliken charges =   0.00000   2.00000
 Mulliken charges and spin densities with hydrogens summed into heavy atoms:
               1          2
     1  O    0.000000   1.000000
     2  O    0.000000   1.000000
 Electronic spatial extent (au):  <R**2>=             43.6356
 Charge=              0.0000 electrons
 Dipole moment (field-independent basis, Debye):
    X=              0.0823    Y=              0.0000    Z=              0.0000  Tot=              0.0823
 Quadrupole moment (field-independent basis, Debye-Ang):
   XX=             -9.8816   YY=             -9.8814   ZZ=            -10.4644
   XY=              0.0000   XZ=              0.0000   YZ=              0.0000
 Traceless Quadrupole moment (field-independent basis, Debye-Ang):
   XX=              0.1942   YY=              0.1944   ZZ=             -0.3886
   XY=              0.0000   XZ=              0.0000   YZ=              0.0000
 Octapole moment (field-independent basis, Debye-Ang**2):
  XXX=              0.0547  YYY=              0.0000  ZZZ=              0.0000  XYY=              0.0182
  XXY=              0.0000  XXZ=              0.0000  XZZ=              0.0543  YZZ=              0.0000
  YYZ=              0.0000  XYZ=              0.0000
 Hexadecapole moment (field-independent basis, Debye-Ang**3):
 XXXX=             -6.4622 YYYY=             -6.4619 ZZZZ=            -28.1070 XXXY=              0.0000
 XXXZ=              0.0000 YYYX=              0.0000 YYYZ=              0.0000 ZZZX=              0.0000
 ZZZY=              0.0000 XXYY=             -2.1540 XXZZ=             -5.9708 YYZZ=             -5.9706
 XXYZ=              0.0000 YYXZ=              0.0000 ZZXY=              0.0000
 N-N= 2.782461435104D+01 E-N=-4.104899629424D+02  KE= 1.493520643886D+02
 Orbital energies and kinetic energies (alpha):
                                 1                 2
   1         O               -20.724356         29.188640
   2         O               -20.723329         29.201554
   3         O                -1.626791          2.844636
   4         O                -1.071210          3.322929
   5         O                -0.716173          2.703888
   6         O                -0.658654          2.203886
   7         O                -0.658546          2.205152
   8         O                -0.141147          3.005294
   9         O                -0.141134          3.005399
  10         V                 0.441097          3.325824
  11         V                 1.065718          3.924183
  12         V                 1.092911          3.584224
  13         V                 1.093942          3.600034
  14         V                 1.145691          2.975455
  15         V                 1.168202          2.457633
  16         V                 1.200745          3.253922
  17         V                 1.200827          3.254019
  18         V                 1.829950          3.011536
  19         V                 2.391680          3.804290
  20         V                 2.391686          3.804283
  21         V                 2.671245          3.992597
  22         V                 2.671245          3.992597
  23         V                 2.981168          4.316489
  24         V                 2.981168          4.316489
  25         V                 3.136547          5.085256
  26         V                 3.649850          5.066584
  27         V                 3.649854          5.066583
  28         V                 4.180506          6.160051
  29         V                 5.412003         13.395198
  30         V                 5.977448         13.992651
 Total kinetic energy from orbitals= 1.553627581735D+02
                          Isotropic Fermi Contact Couplings
        Atom                 a.u.       MegaHertz       Gauss      10(-4) cm-1
     1  O(17)              0.00026      -0.07755      -0.02767      -0.02587
     2  O(17)              0.00026      -0.07755      -0.02767      -0.02587
 --------------------------------------------------------
       Center         ----  Spin Dipole Couplings  ----
                      3XX-RR        3YY-RR        3ZZ-RR
 --------------------------------------------------------
     1   Atom        1.061829      1.062106     -2.123934
     2   Atom        1.061829      1.062106     -2.123934
 --------------------------------------------------------
                        XY            XZ            YZ
 --------------------------------------------------------
     1   Atom        0.000000      0.013370      0.000000
     2   Atom        0.000000     -0.013370      0.000000
 --------------------------------------------------------


 ---------------------------------------------------------------------------------
              Anisotropic Spin Dipole Couplings in Principal Axis System
 ---------------------------------------------------------------------------------

       Atom             a.u.   MegaHertz   Gauss  10(-4) cm-1        Axes

              Baa    -2.1240   153.690    54.841    51.266 -0.0042  0.0000  1.0000
     1 O(17)  Bbb     1.0619   -76.837   -27.417   -25.630  1.0000  0.0000  0.0042
              Bcc     1.0621   -76.853   -27.423   -25.635  0.0000  1.0000  0.0000
 
              Baa    -2.1240   153.690    54.841    51.266  0.0042  0.0000  1.0000
     2 O(17)  Bbb     1.0619   -76.837   -27.417   -25.630  1.0000  0.0000 -0.0042
              Bcc     1.0621   -76.853   -27.423   -25.635  0.0000  1.0000  0.0000
 

 ---------------------------------------------------------------------------------

 No NMR shielding tensors so no spin-rotation constants.
 Leave Link  601 at Tue Sep 29 11:37:14 2015, MaxMem=    33554432 cpu:               0.2 elap:               0.2
 (Enter /home/gauss/gdvi01p/gdv/l9999.exe)
 Unable to Open any file for archive entry.
 1\1\GINC-MEDUSA\SP\ROHF\CC-pVDZ\O2(3)\DBWY\29-Sep-2015\0\\#p rohf/cc-p
 VDZ gfinput pop=full nosymm 6D Field=X-100\\O2 cc-pVDZ\\0,3\O,0,0.,0.,
 0.608586\O,0,0.,0.,-0.608586\\Version=ES64L-GDVRevI.01+\HF=-149.608066
 1\RMSD=3.145e-09\Dipole=0.0323619,0.,0.\Quadrupole=0.1443759,0.1445331
 ,-0.288909,0.,0.,0.\PG=D*H [C*(O1.O1)]\\@
 The archive entry for this job was punched.


 Children are likely to live up to what you believe of them.
 -- Lady Bird Johnson
 Job cpu time:       0 days  0 hours  0 minutes  0.9 seconds.
 Elapsed time:       0 days  0 hours  0 minutes  0.7 seconds.
 File lengths (MBytes):  RWF=      5 Int=      0 D2E=      0 Chk=      1 Scr=      1
 Normal termination of Gaussian DV at Tue Sep 29 11:37:14 2015.
