 Entering Gaussian System, Link 0=gdv
 Input=O2_cc-pVDZ_TD.com
 Output=O2_cc-pVDZ_TD.log
 Initial command:
 /home/gauss/gdvi03p/gdv/l1.exe "/home/GauScr/Gau-23655.inp" -scrdir="/home/GauScr/"
 Entering Link 1 = /home/gauss/gdvi03p/gdv/l1.exe PID=     23656.
  
 Copyright (c) 1988,1990,1992,1993,1995,1998,2003,2009,2015,
            Gaussian, Inc.  All Rights Reserved.
  
 This is the private, development version of
 the Gaussian(R) DV system of programs. It is based on
 the Gaussian(R) 09 system (copyright 2009, Gaussian, Inc.),
 the Gaussian(R) 03 system (copyright 2003, Gaussian, Inc.),
 the Gaussian(R) 98 system (copyright 1998, Gaussian, Inc.),
 the Gaussian(R) 94 system (copyright 1995, Gaussian, Inc.),
 the Gaussian 92(TM) system (copyright 1992, Gaussian, Inc.),
 the Gaussian 90(TM) system (copyright 1990, Gaussian, Inc.),
 the Gaussian 88(TM) system (copyright 1988, Gaussian, Inc.),
 the Gaussian 86(TM) system (copyright 1986, Carnegie Mellon
 University), and the Gaussian 82(TM) system (copyright 1983,
 Carnegie Mellon University). Gaussian is a federally registered
 trademark of Gaussian, Inc.
  
 This software contains proprietary and confidential information,
 including trade secrets, belonging to Gaussian, Inc.
  
 This software is provided under written license and may be
 used, copied, transmitted, or stored only in accord with that
 written license.
  
 The following legend is applicable only to US Government
 contracts under FAR:
  
                    RESTRICTED RIGHTS LEGEND
  
 Use, reproduction and disclosure by the US Government is
 subject to restrictions as set forth in subparagraphs (a)
 and (c) of the Commercial Computer Software - Restricted
 Rights clause in FAR 52.227-19.
  
 Gaussian, Inc.
 340 Quinnipiac St., Bldg. 40, Wallingford CT 06492
  
  
 ---------------------------------------------------------------
 Warning -- This program may not be used in any manner that
 competes with the business of Gaussian, Inc. or will provide
 assistance to any competitor of Gaussian, Inc.  The licensee
 of this program is prohibited from giving any competitor of
 Gaussian, Inc. access to this program.  By using this program,
 the user acknowledges that Gaussian, Inc. is engaged in the
 business of creating and licensing software in the field of
 computational chemistry and represents and warrants to the
 licensee that it is not a competitor of Gaussian, Inc. and that
 it will not use this program in any manner prohibited above.
 ---------------------------------------------------------------
  

 Cite this work as:
 Gaussian Development Version, Revision I.03+,
 M. J. Frisch, G. W. Trucks, H. B. Schlegel, G. E. Scuseria, 
 M. A. Robb, J. R. Cheeseman, G. Scalmani, V. Barone, B. Mennucci, 
 G. A. Petersson, H. Nakatsuji, M. Caricato, X. Li, H. P. Hratchian, 
 J. Bloino, B. G. Janesko, A. F. Izmaylov, A. Marenich, F. Lipparini, 
 G. Zheng, J. L. Sonnenberg, W. Liang, M. Hada, M. Ehara, K. Toyota, 
 R. Fukuda, J. Hasegawa, M. Ishida, T. Nakajima, Y. Honda, O. Kitao, 
 H. Nakai, T. Vreven, K. Throssell, J. A. Montgomery, Jr., 
 J. E. Peralta, F. Ogliaro, M. Bearpark, J. J. Heyd, E. Brothers, 
 K. N. Kudin, V. N. Staroverov, T. Keith, R. Kobayashi, J. Normand, 
 K. Raghavachari, A. Rendell, J. C. Burant, S. S. Iyengar, J. Tomasi, 
 M. Cossi, N. Rega, J. M. Millam, M. Klene, J. E. Knox, J. B. Cross, 
 V. Bakken, C. Adamo, J. Jaramillo, R. Gomperts, R. E. Stratmann, 
 O. Yazyev, A. J. Austin, R. Cammi, C. Pomelli, J. W. Ochterski, 
 R. L. Martin, K. Morokuma, V. G. Zakrzewski, G. A. Voth, 
 P. Salvador, J. J. Dannenberg, S. Dapprich, P. V. Parandekar, 
 N. J. Mayhall, A. D. Daniels, O. Farkas, J. B. Foresman, 
 J. V. Ortiz, J. Cioslowski, and D. J. Fox, 
 Gaussian, Inc., Wallingford CT, 2014.
 
 *******************************************
 Gaussian DV:  ES64L-GDVRevI.03+  2-May-2015
                 28-Oct-2015 
 *******************************************
 -------------------------------------------------------------
 #p uhf/cc-pVDZ gfinput pop=full nosymm td(full,nstates=12) 6D
 -------------------------------------------------------------
 1/38=1,172=1/1;
 2/12=2,15=1,17=6,18=5,40=1/2;
 3/5=16,8=2,11=2,24=10,25=1,30=1,116=2/1,2,3,8;
 4//1;
 5/5=2,38=5/2;
 8/6=1,10=90,108=12/1,4;
 9/41=12,42=3,70=2/14;
 6/7=3/1;
 99/5=1,9=1/99;
 Leave Link    1 at Wed Oct 28 10:12:16 2015, MaxMem=           0 cpu:               0.0 elap:               0.0
 (Enter /home/gauss/gdvi03p/gdv/l101.exe)
 ----------
 O2 cc-pVDZ
 ----------
 Symbolic Z-matrix:
 Charge =  0 Multiplicity = 3
 O                     0.        0.        0.60859 
 O                     0.        0.       -0.60859 
 
 ITRead=  0  0
 MicOpt= -1 -1
 NAtoms=      2 NQM=        2 NQMF=       0 NMMI=      0 NMMIF=      0
                NMic=       0 NMicF=      0.
                    Isotopes and Nuclear Properties:
 (Nuclear quadrupole moments (NQMom) in fm**2, nuclear magnetic moments (NMagM)
  in nuclear magnetons)

  Atom         1           2
 IAtWgt=          16          16
 AtmWgt=  15.9949146  15.9949146
 NucSpn=           0           0
 AtZEff=   0.0000000   0.0000000
 NQMom=    0.0000000   0.0000000
 NMagM=    0.0000000   0.0000000
 AtZNuc=   8.0000000   8.0000000
 Leave Link  101 at Wed Oct 28 10:12:16 2015, MaxMem=    33554432 cpu:               0.1 elap:               0.1
 (Enter /home/gauss/gdvi03p/gdv/l202.exe)
                          Input orientation:                          
 ---------------------------------------------------------------------
 Center     Atomic      Atomic             Coordinates (Angstroms)
 Number     Number       Type             X           Y           Z
 ---------------------------------------------------------------------
      1          8           0        0.000000    0.000000    0.608586
      2          8           0        0.000000    0.000000   -0.608586
 ---------------------------------------------------------------------
 Symmetry turned off by external request.
 Stoichiometry    O2(3)
 Framework group  D*H[C*(O.O)]
 Deg. of freedom     1
 Full point group                 D*H     NOp   8
 Rotational constants (GHZ):      0.0000000     42.6541569     42.6541569
 Leave Link  202 at Wed Oct 28 10:12:17 2015, MaxMem=    33554432 cpu:               0.0 elap:               0.0
 (Enter /home/gauss/gdvi03p/gdv/l301.exe)
 Standard basis: CC-pVDZ (6D, 7F)
 Ernie: Thresh=  0.10000D-02 Tol=  0.10000D-05 Strict=F.
 Ernie:  4 primitive shells out of 44 were deleted.
 AO basis set in the form of general basis input (Overlap normalization):
      1 0
 S   7 1.00       0.000000000000
      0.1172000000D+05  0.7118644339D-03
      0.1759000000D+04  0.5485201992D-02
      0.4008000000D+03  0.2790992963D-01
      0.1137000000D+03  0.1051332075D+00
      0.3703000000D+02  0.2840024898D+00
      0.1327000000D+02  0.4516739459D+00
      0.5025000000D+01  0.2732081255D+00
 S   7 1.00       0.000000000000
      0.1172000000D+05  0.7690300460D-05
      0.4008000000D+03  0.3134845790D-03
      0.1137000000D+03 -0.2966148530D-02
      0.3703000000D+02 -0.1087535430D-01
      0.1327000000D+02 -0.1207538168D+00
      0.5025000000D+01 -0.1062752639D+00
      0.1013000000D+01  0.1095975478D+01
 S   1 1.00       0.000000000000
      0.3023000000D+00  0.1000000000D+01
 P   3 1.00       0.000000000000
      0.1770000000D+02  0.6267916628D-01
      0.3854000000D+01  0.3335365659D+00
      0.1046000000D+01  0.7412396416D+00
 P   1 1.00       0.000000000000
      0.2753000000D+00  0.1000000000D+01
 D   1 1.00       0.000000000000
      0.1185000000D+01  0.1000000000D+01
 ****
      2 0
 S   7 1.00       0.000000000000
      0.1172000000D+05  0.7118644339D-03
      0.1759000000D+04  0.5485201992D-02
      0.4008000000D+03  0.2790992963D-01
      0.1137000000D+03  0.1051332075D+00
      0.3703000000D+02  0.2840024898D+00
      0.1327000000D+02  0.4516739459D+00
      0.5025000000D+01  0.2732081255D+00
 S   7 1.00       0.000000000000
      0.1172000000D+05  0.7690300460D-05
      0.4008000000D+03  0.3134845790D-03
      0.1137000000D+03 -0.2966148530D-02
      0.3703000000D+02 -0.1087535430D-01
      0.1327000000D+02 -0.1207538168D+00
      0.5025000000D+01 -0.1062752639D+00
      0.1013000000D+01  0.1095975478D+01
 S   1 1.00       0.000000000000
      0.3023000000D+00  0.1000000000D+01
 P   3 1.00       0.000000000000
      0.1770000000D+02  0.6267916628D-01
      0.3854000000D+01  0.3335365659D+00
      0.1046000000D+01  0.7412396416D+00
 P   1 1.00       0.000000000000
      0.2753000000D+00  0.1000000000D+01
 D   1 1.00       0.000000000000
      0.1185000000D+01  0.1000000000D+01
 ****

    30 basis functions,    66 primitive gaussians,    30 cartesian basis functions
     9 alpha electrons        7 beta electrons
       nuclear repulsion energy        27.8246143510 Hartrees.
 IExCor=    0 DFT=F Ex=HF Corr=None ExCW=0 ScaHFX=  1.000000
 ScaDFX=  1.000000  1.000000  1.000000  1.000000 ScalE2=  1.000000  1.000000
 IRadAn=      0 IRanWt=     -1 IRanGd=            0 ICorTp=0 IEmpDi=  4
 NAtoms=    2 NActive=    2 NUniq=    2 SFac= 1.00D+00 NAtFMM=   60 NAOKFM=F Big=F
 Integral buffers will be    131072 words long.
 Raffenetti 2 integral format.
 Two-electron integral symmetry is turned off.
 Leave Link  301 at Wed Oct 28 10:12:17 2015, MaxMem=    33554432 cpu:               0.0 elap:               0.1
 (Enter /home/gauss/gdvi03p/gdv/l302.exe)
 NPDir=0 NMtPBC=     1 NCelOv=     1 NCel=       1 NClECP=     1 NCelD=      1
         NCelK=      1 NCelE2=     1 NClLst=     1 CellRange=     0.0.
 One-electron integrals computed using PRISM.
 One-electron integral symmetry used in STVInt
 NBasis=    30 RedAO= T EigKep=  1.51D-02  NBF=    30
 NBsUse=    30 1.00D-06 EigRej= -1.00D+00 NBFU=    30
 Leave Link  302 at Wed Oct 28 10:12:17 2015, MaxMem=    33554432 cpu:               0.1 elap:               0.1
 (Enter /home/gauss/gdvi03p/gdv/l303.exe)
 DipDrv:  MaxL=1.
 Leave Link  303 at Wed Oct 28 10:12:17 2015, MaxMem=    33554432 cpu:               0.0 elap:               0.0
 (Enter /home/gauss/gdvi03p/gdv/l308.exe)
 Leave Link  308 at Wed Oct 28 10:12:17 2015, MaxMem=    33554432 cpu:               0.0 elap:               0.0
 (Enter /home/gauss/gdvi03p/gdv/l401.exe)
 ExpMin= 2.75D-01 ExpMax= 1.17D+04 ExpMxC= 4.01D+02 IAcc=1 IRadAn=         1 AccDes= 0.00D+00
 Harris functional with IExCor=  205 and IRadAn=       1 diagonalized for initial guess.
 HarFok:  IExCor=  205 AccDes= 0.00D+00 IRadAn=         1 IDoV= 1 UseB2=F ITyADJ=14
 ICtDFT=  3500011 ScaDFX=  1.000000  1.000000  1.000000  1.000000
 FoFCou: FMM=F IPFlag=           0 FMFlag=      100000 FMFlg1=           0
         NFxFlg=           0 DoJE=T BraDBF=F KetDBF=T FulRan=T
         wScrn=  0.000000 ICntrl=       500 IOpCl=  0 I1Cent=   200000004 NGrid=           0
         NMat0=    1 NMatS0=      1 NMatT0=    0 NMatD0=    1 NMtDS0=    0 NMtDT0=    0
 Symmetry not used in FoFCou.
 Harris En= -149.558887332853    
 JPrj=0 DoOrth=F DoCkMO=F.
 Initial guess <Sx>= 0.0000 <Sy>= 0.0000 <Sz>= 1.0000 <S**2>= 2.0000 S= 1.0000
 Leave Link  401 at Wed Oct 28 10:12:17 2015, MaxMem=    33554432 cpu:               0.1 elap:               0.1
 (Enter /home/gauss/gdvi03p/gdv/l502.exe)
 Keep R1 and R2 ints in memory in canonical form, NReq=1052271.
 FoFCou: FMM=F IPFlag=           0 FMFlag=           0 FMFlg1=           0
         NFxFlg=           0 DoJE=F BraDBF=F KetDBF=F FulRan=T
         wScrn=  0.000000 ICntrl=       600 IOpCl=  0 I1Cent=           0 NGrid=           0
         NMat0=    1 NMatS0=    465 NMatT0=    0 NMatD0=    1 NMtDS0=    0 NMtDT0=    0
 Symmetry not used in FoFCou.
 Two-electron integral symmetry not used.
 UHF open shell SCF:
 Using DIIS extrapolation, IDIIS=  1040.
 NGot=    33554432 LenX=    33335390 LenY=    33334049
 Requested convergence on RMS density matrix=1.00D-08 within 128 cycles.
 Requested convergence on MAX density matrix=1.00D-06.
 Requested convergence on             energy=1.00D-06.
 No special actions if energy rises.

 Cycle   1  Pass 1  IDiag  1:
 E= -149.588806123023    
 DIIS: error= 9.08D-02 at cycle   1 NSaved=   1.
 NSaved= 1 IEnMin= 1 EnMin= -149.588806123023     IErMin= 1 ErrMin= 9.08D-02
 ErrMax= 9.08D-02  0.00D+00 EMaxC= 1.00D-01 BMatC= 5.04D-01 BMatP= 5.04D-01
 IDIUse=3 WtCom= 9.19D-02 WtEn= 9.08D-01
 Coeff-Com:  0.100D+01
 Coeff-En:   0.100D+01
 Coeff:      0.100D+01
 Gap=     0.957 Goal=   None    Shift=    0.000
 Gap=     0.686 Goal=   None    Shift=    0.000
 GapD=    0.686 DampG=2.000 DampE=0.500 DampFc=1.0000 IDamp=-1.
 RMSDP=4.00D-03 MaxDP=2.95D-02              OVMax= 5.30D-02

 Cycle   2  Pass 1  IDiag  1:
 E= -149.623956155664     Delta-E=       -0.035150032642 Rises=F Damp=F
 DIIS: error= 1.33D-02 at cycle   2 NSaved=   2.
 NSaved= 2 IEnMin= 2 EnMin= -149.623956155664     IErMin= 2 ErrMin= 1.33D-02
 ErrMax= 1.33D-02  0.00D+00 EMaxC= 1.00D-01 BMatC= 1.02D-02 BMatP= 5.04D-01
 IDIUse=3 WtCom= 8.67D-01 WtEn= 1.33D-01
 Coeff-Com: -0.627D-01 0.106D+01
 Coeff-En:   0.000D+00 0.100D+01
 Coeff:     -0.544D-01 0.105D+01
 Gap=     0.963 Goal=   None    Shift=    0.000
 Gap=     0.678 Goal=   None    Shift=    0.000
 RMSDP=1.45D-03 MaxDP=1.17D-02 DE=-3.52D-02 OVMax= 1.67D-02

 Cycle   3  Pass 1  IDiag  1:
 E= -149.627136970426     Delta-E=       -0.003180814762 Rises=F Damp=F
 DIIS: error= 4.94D-03 at cycle   3 NSaved=   3.
 NSaved= 3 IEnMin= 3 EnMin= -149.627136970426     IErMin= 3 ErrMin= 4.94D-03
 ErrMax= 4.94D-03  0.00D+00 EMaxC= 1.00D-01 BMatC= 1.43D-03 BMatP= 1.02D-02
 IDIUse=3 WtCom= 9.51D-01 WtEn= 4.94D-02
 Coeff-Com:  0.768D-02-0.394D+00 0.139D+01
 Coeff-En:   0.000D+00 0.000D+00 0.100D+01
 Coeff:      0.730D-02-0.375D+00 0.137D+01
 Gap=     0.968 Goal=   None    Shift=    0.000
 Gap=     0.679 Goal=   None    Shift=    0.000
 RMSDP=8.00D-04 MaxDP=7.50D-03 DE=-3.18D-03 OVMax= 8.24D-03

 Cycle   4  Pass 1  IDiag  1:
 E= -149.627755379875     Delta-E=       -0.000618409449 Rises=F Damp=F
 DIIS: error= 1.18D-03 at cycle   4 NSaved=   4.
 NSaved= 4 IEnMin= 4 EnMin= -149.627755379875     IErMin= 4 ErrMin= 1.18D-03
 ErrMax= 1.18D-03  0.00D+00 EMaxC= 1.00D-01 BMatC= 1.00D-04 BMatP= 1.43D-03
 IDIUse=3 WtCom= 9.88D-01 WtEn= 1.18D-02
 Coeff-Com:  0.502D-02-0.438D-01-0.201D+00 0.124D+01
 Coeff-En:   0.000D+00 0.000D+00 0.000D+00 0.100D+01
 Coeff:      0.496D-02-0.433D-01-0.198D+00 0.124D+01
 Gap=     0.969 Goal=   None    Shift=    0.000
 Gap=     0.679 Goal=   None    Shift=    0.000
 RMSDP=2.58D-04 MaxDP=2.19D-03 DE=-6.18D-04 OVMax= 2.74D-03

 Cycle   5  Pass 1  IDiag  1:
 E= -149.627800349126     Delta-E=       -0.000044969251 Rises=F Damp=F
 DIIS: error= 1.41D-04 at cycle   5 NSaved=   5.
 NSaved= 5 IEnMin= 5 EnMin= -149.627800349126     IErMin= 5 ErrMin= 1.41D-04
 ErrMax= 1.41D-04  0.00D+00 EMaxC= 1.00D-01 BMatC= 2.24D-06 BMatP= 1.00D-04
 IDIUse=3 WtCom= 9.99D-01 WtEn= 1.41D-03
 Coeff-Com: -0.820D-03 0.164D-01-0.285D-01-0.108D+00 0.112D+01
 Coeff-En:   0.000D+00 0.000D+00 0.000D+00 0.000D+00 0.100D+01
 Coeff:     -0.819D-03 0.164D-01-0.285D-01-0.108D+00 0.112D+01
 Gap=     0.969 Goal=   None    Shift=    0.000
 Gap=     0.679 Goal=   None    Shift=    0.000
 RMSDP=3.39D-05 MaxDP=3.33D-04 DE=-4.50D-05 OVMax= 3.40D-04

 Cycle   6  Pass 1  IDiag  1:
 E= -149.627801088894     Delta-E=       -0.000000739769 Rises=F Damp=F
 DIIS: error= 3.93D-05 at cycle   6 NSaved=   6.
 NSaved= 6 IEnMin= 6 EnMin= -149.627801088894     IErMin= 6 ErrMin= 3.93D-05
 ErrMax= 3.93D-05  0.00D+00 EMaxC= 1.00D-01 BMatC= 1.18D-07 BMatP= 2.24D-06
 IDIUse=1 WtCom= 1.00D+00 WtEn= 0.00D+00
 Coeff-Com: -0.279D-03 0.490D-02 0.518D-02-0.790D-01 0.148D+00 0.922D+00
 Coeff:     -0.279D-03 0.490D-02 0.518D-02-0.790D-01 0.148D+00 0.922D+00
 Gap=     0.969 Goal=   None    Shift=    0.000
 Gap=     0.679 Goal=   None    Shift=    0.000
 RMSDP=5.69D-06 MaxDP=6.81D-05 DE=-7.40D-07 OVMax= 8.08D-05

 Cycle   7  Pass 1  IDiag  1:
 E= -149.627801114319     Delta-E=       -0.000000025424 Rises=F Damp=F
 DIIS: error= 5.62D-06 at cycle   7 NSaved=   7.
 NSaved= 7 IEnMin= 7 EnMin= -149.627801114319     IErMin= 7 ErrMin= 5.62D-06
 ErrMax= 5.62D-06  0.00D+00 EMaxC= 1.00D-01 BMatC= 1.19D-09 BMatP= 1.18D-07
 IDIUse=1 WtCom= 1.00D+00 WtEn= 0.00D+00
 Coeff-Com:  0.850D-04-0.158D-02-0.160D-02 0.259D-01-0.572D-01-0.285D+00
 Coeff-Com:  0.132D+01
 Coeff:      0.850D-04-0.158D-02-0.160D-02 0.259D-01-0.572D-01-0.285D+00
 Coeff:      0.132D+01
 Gap=     0.969 Goal=   None    Shift=    0.000
 Gap=     0.679 Goal=   None    Shift=    0.000
 RMSDP=1.19D-06 MaxDP=1.48D-05 DE=-2.54D-08 OVMax= 1.33D-05

 Cycle   8  Pass 1  IDiag  1:
 E= -149.627801114792     Delta-E=       -0.000000000474 Rises=F Damp=F
 DIIS: error= 8.39D-07 at cycle   8 NSaved=   8.
 NSaved= 8 IEnMin= 8 EnMin= -149.627801114792     IErMin= 8 ErrMin= 8.39D-07
 ErrMax= 8.39D-07  0.00D+00 EMaxC= 1.00D-01 BMatC= 3.01D-11 BMatP= 1.19D-09
 IDIUse=1 WtCom= 1.00D+00 WtEn= 0.00D+00
 Coeff-Com: -0.232D-04 0.447D-03 0.414D-03-0.714D-02 0.160D-01 0.805D-01
 Coeff-Com: -0.440D+00 0.135D+01
 Coeff:     -0.232D-04 0.447D-03 0.414D-03-0.714D-02 0.160D-01 0.805D-01
 Coeff:     -0.440D+00 0.135D+01
 Gap=     0.969 Goal=   None    Shift=    0.000
 Gap=     0.679 Goal=   None    Shift=    0.000
 RMSDP=1.62D-07 MaxDP=2.02D-06 DE=-4.74D-10 OVMax= 1.89D-06

 Cycle   9  Pass 1  IDiag  1:
 E= -149.627801114805     Delta-E=       -0.000000000012 Rises=F Damp=F
 DIIS: error= 1.53D-07 at cycle   9 NSaved=   9.
 NSaved= 9 IEnMin= 9 EnMin= -149.627801114805     IErMin= 9 ErrMin= 1.53D-07
 ErrMax= 1.53D-07  0.00D+00 EMaxC= 1.00D-01 BMatC= 1.45D-12 BMatP= 3.01D-11
 IDIUse=1 WtCom= 1.00D+00 WtEn= 0.00D+00
 Coeff-Com:  0.537D-05-0.109D-03-0.920D-04 0.169D-02-0.376D-02-0.198D-01
 Coeff-Com:  0.118D+00-0.512D+00 0.142D+01
 Coeff:      0.537D-05-0.109D-03-0.920D-04 0.169D-02-0.376D-02-0.198D-01
 Coeff:      0.118D+00-0.512D+00 0.142D+01
 Gap=     0.969 Goal=   None    Shift=    0.000
 Gap=     0.679 Goal=   None    Shift=    0.000
 RMSDP=3.09D-08 MaxDP=3.17D-07 DE=-1.22D-11 OVMax= 3.92D-07

 Cycle  10  Pass 1  IDiag  1:
 E= -149.627801114806     Delta-E=       -0.000000000001 Rises=F Damp=F
 DIIS: error= 2.78D-08 at cycle  10 NSaved=  10.
 NSaved=10 IEnMin=10 EnMin= -149.627801114806     IErMin=10 ErrMin= 2.78D-08
 ErrMax= 2.78D-08  0.00D+00 EMaxC= 1.00D-01 BMatC= 4.14D-14 BMatP= 1.45D-12
 IDIUse=1 WtCom= 1.00D+00 WtEn= 0.00D+00
 Coeff-Com: -0.782D-06 0.172D-04 0.115D-04-0.251D-03 0.537D-03 0.320D-02
 Coeff-Com: -0.204D-01 0.111D+00-0.455D+00 0.136D+01
 Coeff:     -0.782D-06 0.172D-04 0.115D-04-0.251D-03 0.537D-03 0.320D-02
 Coeff:     -0.204D-01 0.111D+00-0.455D+00 0.136D+01
 Gap=     0.969 Goal=   None    Shift=    0.000
 Gap=     0.679 Goal=   None    Shift=    0.000
 RMSDP=5.05D-09 MaxDP=4.03D-08 DE=-9.38D-13 OVMax= 5.93D-08

 SCF Done:  E(UHF) =  -149.627801115     A.U. after   10 cycles
            NFock= 10  Conv=0.50D-08     -V/T= 2.0014
 <Sx>= 0.0000 <Sy>= 0.0000 <Sz>= 1.0000 <S**2>= 2.0336 S= 1.0112
 <L.S>= 0.000000000000E+00
 KE= 1.494120171262D+02 PE=-4.105572479092D+02 EE= 8.369281531709D+01
 Annihilation of the first spin contaminant:
 S**2 before annihilation     2.0336,   after     2.0006
 Leave Link  502 at Wed Oct 28 10:12:17 2015, MaxMem=    33554432 cpu:               0.1 elap:               0.1
 (Enter /home/gauss/gdvi03p/gdv/l801.exe)
 Range of M.O.s used for correlation:     1    30
 NBasis=    30 NAE=     9 NBE=     7 NFC=     0 NFV=     0
 NROrb=     30 NOA=     9 NOB=     7 NVA=    21 NVB=    23
 Leave Link  801 at Wed Oct 28 10:12:17 2015, MaxMem=    33554432 cpu:               0.0 elap:               0.0
 (Enter /home/gauss/gdvi03p/gdv/l804.exe)
 Open-shell transformation, MDV=    33554432 ITran=3 ISComp=1.
 Unit  1 TFree=         57493 TCopy=        189105.
 Semi-Direct transformation.
 ModeAB=           2 MOrb=             9 LenV=      33357909
 LASXX=        50751 LTotXX=       50751 LenRXX=       50751
 LTotAB=       56646 MaxLAS=      125550 LenRXY=      125550
 NonZer=      136890 LenScr=      785920 LnRSAI=           0
 LnScr1=           0 LExtra=           0 Total=       962221
 MaxDsk=          -1 SrtSym=           F ITran=            3
 DoSDTr:  NPSUse=  1
 JobTyp=1 Pass  1:  I=   1 to   9.
 (rs|ai) integrals will be sorted in core.
 Complete sort for first half transformation.
 First half transformation complete.
 Complete sort for second half transformation.
 Second half transformation complete.
 ModeAB=           2 MOrb=             7 LenV=      33357909
 LASXX=        34846 LTotXX=       34846 LenRXX=       97650
 LTotAB=        6468 MaxLAS=       97650 LenRXY=        6468
 NonZer=      106470 LenScr=      785920 LnRSAI=           0
 LnScr1=           0 LExtra=           0 Total=       890038
 MaxDsk=          -1 SrtSym=           F ITran=            3
 DoSDTr:  NPSUse=  1
 JobTyp=2 Pass  1:  I=   1 to   7.
 (rs|ai) integrals will be sorted in core.
 Complete sort for first half transformation.
 First half transformation complete.
 Complete sort for second half transformation.
 Second half transformation complete.
 Spin components of T(2) and E(2):
     alpha-alpha T2 =       0.9848596355D-02 E2=     -0.4637174352D-01
     alpha-beta  T2 =       0.6348868247D-01 E2=     -0.2484281308D+00
     beta-beta   T2 =       0.2586296096D-01 E2=     -0.6275635572D-01
 ANorm=    0.1048427508D+01
 E2 =    -0.3575562301D+00 EUMP2 =    -0.14998535734486D+03
 (S**2,0)=  0.20336D+01           (S**2,1)=  0.20045D+01
 E(PUHF)=      -0.14963770348D+03        E(PMP2)=      -0.14999102240D+03
 Leave Link  804 at Wed Oct 28 10:12:17 2015, MaxMem=    33554432 cpu:               0.2 elap:               0.2
 (Enter /home/gauss/gdvi03p/gdv/l914.exe)
 UHF ground state
 MDV=    33554432 DFT=F DoStab=F Mixed=F DoRPA=T DoScal=F NonHer=T
 Making orbital integer symmetry assigments:
 FoFJK:  IHMeth= 1 ICntrl=       0 DoSepK=F KAlg= 0 I1Cent=           0 FoldK=F
 IRaf=         0 NMat=       2 IRICut=       1 DoRegI=T DoRafI=F ISym2E= 0 IDoP0=0 IntGTp=1.
 FoFCou: FMM=F IPFlag=           0 FMFlag=      100000 FMFlg1=           0
         NFxFlg=           0 DoJE=F BraDBF=F KetDBF=F FulRan=T
         wScrn=  0.000000 ICntrl=         0 IOpCl=  1 I1Cent=           0 NGrid=           0
         NMat0=    2 NMatS0=      2 NMatT0=    0 NMatD0=    2 NMtDS0=    0 NMtDT0=    0
 Symmetry not used in FoFCou.
    48 initial guesses have been made.
 Convergence on wavefunction:    0.001000000000000
 Davidson Disk Diagonalization:  ConvIn= 1.00D-03 SkipCon=T Conv= 1.00D-03.
 Max sub-space:   200 roots to seek:    48 dimension of matrix:          350
 Iteration     1 Dimension    48 NMult     0 NNew     48
 New state      4 was old state      5
 New state      5 was old state      6
 New state      6 was old state      4
 New state     11 was old state     14
 New state     12 was old state     11
 Excitation Energies [eV] at current iteration:
 Root      1 :     2.338309624483169
 Root      2 :     2.338309624483486
 Root      3 :     2.676128207540321
 Root      4 :     7.319897009844839
 Root      5 :     7.319897009844897
 Root      6 :     7.910935859876897
 Root      7 :    11.707602892225670
 Root      8 :    11.707602892225700
 Root      9 :    14.173489097839730
 Root     10 :    14.173489097839760
 Root     11 :    16.064966506776820
 Root     12 :    17.526112911885740
 Root     13 :    17.526112911885810
 Root     14 :    19.389315591304490
 Root     15 :    19.389315591304560
 Root     16 :    22.453392477104910
 Root     17 :    26.810226798940710
 Root     18 :    30.728877060412580
 Root     19 :    30.728877060412600
 Root     20 :    31.113981124262150
 Root     21 :    31.131783056728200
 Root     22 :    31.131783056728300
 Root     23 :    31.412034260040250
 Root     24 :    31.436369641528970
 Root     25 :    31.436369641529000
 Root     26 :    32.344694925259870
 Root     27 :    33.047971636025050
 Root     28 :    33.047971636025070
 Root     29 :    33.298882252255170
 Root     30 :    33.900986736369730
 Root     31 :    33.900986736369800
 Root     32 :    33.932860281972300
 Root     33 :    33.932860281972310
 Root     34 :    34.460258897146980
 Root     35 :    34.460258897147050
 Root     36 :    34.633478348824810
 Root     37 :    34.633478348824820
 Root     38 :    34.703531153504120
 Root     39 :    34.850284043181370
 Root     40 :    34.902741683307160
 Root     41 :    34.902741683307200
 Root     42 :    35.124945228548750
 Root     43 :    36.140199777057420
 Root     44 :    36.140199777057510
 Root     45 :    36.659215996608980
 Root     46 :    36.659215996609060
 Root     47 :    40.811221274024240
 Root     48 :    41.925407901967160
 Iteration     2 Dimension    72 NMult    48 NNew     24
 New state      1 was old state      2
 Root      1 not converged, maximum delta is    0.403803033251595
 New state      2 was old state      1
 Root      2 not converged, maximum delta is    0.403803033251547
 Root      3 not converged, maximum delta is    0.021981333585452
 New state      4 was old state      6
 Root      4 not converged, maximum delta is    0.115823820802524
 Root      5 not converged, maximum delta is    0.432286029217959
 New state      6 was old state      4
 Root      6 not converged, maximum delta is    0.432286029217969
 Root      7 not converged, maximum delta is    0.276915185320836
 Root      8 not converged, maximum delta is    0.276994347971487
 Root      9 not converged, maximum delta is    0.333064665957532
 Root     10 not converged, maximum delta is    0.333064665957533
 Root     11 not converged, maximum delta is    0.105591847803884
 Root     12 not converged, maximum delta is    0.061115464826795
 Excitation Energies [eV] at current iteration:
 Root      1 :     1.835956349903781   Change is   -0.502353274579705
 Root      2 :     1.835956349903825   Change is   -0.502353274579344
 Root      3 :     2.653459869615225   Change is   -0.022668337925096
 Root      4 :     7.005373244400571   Change is   -0.905562615476325
 Root      5 :     7.038612495218423   Change is   -0.281284514626473
 Root      6 :     7.038612495218458   Change is   -0.281284514626381
 Root      7 :    11.415449598416740   Change is   -0.292153293808932
 Root      8 :    11.417292358215740   Change is   -0.290310534009957
 Root      9 :    13.947902278984780   Change is   -0.225586818854953
 Root     10 :    13.947902278984880   Change is   -0.225586818854884
 Root     11 :    15.229419573944290   Change is   -0.835546932832528
 Root     12 :    16.682233649634350   Change is   -0.843879262251392
 Iteration     3 Dimension    94 NMult    72 NNew     22
 New state      1 was old state      2
 Root      1 not converged, maximum delta is    0.722239546496134
 New state      2 was old state      1
 Root      2 not converged, maximum delta is    0.722239546496466
 Root      3 has converged.
 Root      4 not converged, maximum delta is    0.012540811787026
 New state      5 was old state      6
 Root      5 not converged, maximum delta is    0.289587560313320
 New state      6 was old state      5
 Root      6 not converged, maximum delta is    0.289587560313314
 Root      7 not converged, maximum delta is    0.001809347903929
 Root      8 not converged, maximum delta is    0.003955349637565
 New state      9 was old state     10
 Root      9 not converged, maximum delta is    0.674764047941764
 New state     10 was old state      9
 Root     10 not converged, maximum delta is    0.674764047941767
 Root     11 not converged, maximum delta is    0.017980052382158
 Root     12 not converged, maximum delta is    0.017450514625494
 Excitation Energies [eV] at current iteration:
 Root      1 :     1.835091463204910   Change is   -0.000864886698916
 Root      2 :     1.835091463205537   Change is   -0.000864886698244
 Root      3 :     2.653459869615597   Change is    0.000000000000372
 Root      4 :     6.989018360560427   Change is   -0.016354883840145
 Root      5 :     7.036215213740694   Change is   -0.002397281477765
 Root      6 :     7.036215213741031   Change is   -0.002397281477392
 Root      7 :    11.414336299664370   Change is   -0.001113298752362
 Root      8 :    11.414363064873270   Change is   -0.002929293342470
 Root      9 :    13.945362853596470   Change is   -0.002539425388413
 Root     10 :    13.945362853596510   Change is   -0.002539425388265
 Root     11 :    15.204387065380820   Change is   -0.025032508563469
 Root     12 :    16.662540343685750   Change is   -0.019693305948601
 Iteration     4 Dimension   116 NMult    94 NNew     22
 New state      1 was old state      2
 Root      1 not converged, maximum delta is    0.102935288284048
 New state      2 was old state      1
 Root      2 not converged, maximum delta is    0.102935288284190
 Root      3 has converged.
 Root      4 has converged.
 Root      5 not converged, maximum delta is    0.647443234267686
 Root      6 not converged, maximum delta is    0.647443234267678
 Root      7 has converged.
 Root      8 has converged.
 Root      9 not converged, maximum delta is    0.261876626224600
 Root     10 not converged, maximum delta is    0.261876626224601
 Root     11 not converged, maximum delta is    0.001085945057082
 Root     12 has converged.
 Excitation Energies [eV] at current iteration:
 Root      1 :     1.835086644849419   Change is   -0.000004818356118
 Root      2 :     1.835086644850987   Change is   -0.000004818353923
 Root      3 :     2.653459869614977   Change is   -0.000000000000620
 Root      4 :     6.988883530510089   Change is   -0.000134830050338
 Root      5 :     7.036192989201933   Change is   -0.000022224538761
 Root      6 :     7.036192989202038   Change is   -0.000022224538993
 Root      7 :    11.414323771995600   Change is   -0.000012527668768
 Root      8 :    11.414324309626830   Change is   -0.000038755246438
 Root      9 :    13.945336281221240   Change is   -0.000026572375230
 Root     10 :    13.945336281221380   Change is   -0.000026572375136
 Root     11 :    15.204077153617110   Change is   -0.000309911763713
 Root     12 :    16.662361837237760   Change is   -0.000178506447993
 Iteration     5 Dimension   128 NMult   116 NNew     12
 DSYEVD-2 returned Info=         257 IAlg= 4 N=   128 NDim=   128 NE2=      260086 trying  DSYEV.
 Root      1 not converged, maximum delta is    0.101902575124205
 Root      2 not converged, maximum delta is    0.101902575125033
 Root      3 has converged.
 Root      4 has converged.
 Root      5 not converged, maximum delta is    0.606020030655606
 Root      6 not converged, maximum delta is    0.606020030655619
 Root      7 has converged.
 Root      8 has converged.
 Root      9 not converged, maximum delta is    0.274910959145553
 Root     10 not converged, maximum delta is    0.274910959145555
 Root     11 has converged.
 Root     12 has converged.
 Excitation Energies [eV] at current iteration:
 Root      1 :     1.835086629327642   Change is   -0.000000015521777
 Root      2 :     1.835086629328631   Change is   -0.000000015522356
 Root      3 :     2.653459869615532   Change is    0.000000000000555
 Root      4 :     6.988883333337215   Change is   -0.000000197172873
 Root      5 :     7.036192913639908   Change is   -0.000000075562024
 Root      6 :     7.036192913639958   Change is   -0.000000075562080
 Root      7 :    11.414323771994350   Change is   -0.000000000001257
 Root      8 :    11.414324309626760   Change is   -0.000000000000076
 Root      9 :    13.945336083329150   Change is   -0.000000197892086
 Root     10 :    13.945336083329210   Change is   -0.000000197892168
 Root     11 :    15.204074605423650   Change is   -0.000002548193462
 Root     12 :    16.662361837237730   Change is   -0.000000000000027
 Iteration     6 Dimension   130 NMult   128 NNew      2
 Root      1 not converged, maximum delta is    0.791285898811845
 Root      2 not converged, maximum delta is    0.791285898812024
 Root      3 has converged.
 Root      4 has converged.
 New state      5 was old state      6
 Root      5 not converged, maximum delta is    0.067255321787029
 New state      6 was old state      5
 Root      6 not converged, maximum delta is    0.067255321787025
 Root      7 has converged.
 Root      8 has converged.
 Root      9 has converged.
 Root     10 has converged.
 Root     11 has converged.
 Root     12 has converged.
 Excitation Energies [eV] at current iteration:
 Root      1 :     1.835086629327805   Change is    0.000000000000162
 Root      2 :     1.835086629329103   Change is    0.000000000000473
 Root      3 :     2.653459869615070   Change is   -0.000000000000462
 Root      4 :     6.988883333336831   Change is   -0.000000000000385
 Root      5 :     7.036192913376762   Change is   -0.000000000263196
 Root      6 :     7.036192913377195   Change is   -0.000000000262714
 Root      7 :    11.414323771994470   Change is    0.000000000000119
 Root      8 :    11.414324309626900   Change is    0.000000000000147
 Root      9 :    13.945336081913750   Change is   -0.000000001415399
 Root     10 :    13.945336081913760   Change is   -0.000000001415453
 Root     11 :    15.204074605423360   Change is   -0.000000000000287
 Root     12 :    16.662361837237740   Change is    0.000000000000009
 Convergence achieved on expansion vectors.
 ***********************************************************************
 Excited states from <AA,BB:AA,BB> singles matrix:
 ***********************************************************************
 
 ExtSpn:  IState=     1 X2= 1.715 Y2= 0.715 X2-Y2-1= 4.44D-16
          S2Grnd=  2.034 Ra=  0.000 Rb= -0.011 T= -0.018 S2Ext= -0.028 S2=  2.005
 ExtSpn:  IState=     2 X2= 1.715 Y2= 0.715 X2-Y2-1= 2.22D-16
          S2Grnd=  2.034 Ra=  0.000 Rb= -0.011 T= -0.018 S2Ext= -0.028 S2=  2.005
 ExtSpn:  IState=     3 X2= 1.393 Y2= 0.393 X2-Y2-1= 0.00D+00
          S2Grnd=  2.034 Ra=  0.000 Rb= -0.011 T=  0.000 S2Ext= -0.011 S2=  2.023
 ExtSpn:  IState=     4 X2= 1.042 Y2= 0.042 X2-Y2-1= 4.44D-16
          S2Grnd=  2.034 Ra=  0.062 Rb=  0.006 T= -0.080 S2Ext= -0.013 S2=  2.021
 ExtSpn:  IState=     5 X2= 1.028 Y2= 0.028 X2-Y2-1= 2.22D-16
          S2Grnd=  2.034 Ra=  0.001 Rb= -0.020 T= -0.002 S2Ext= -0.021 S2=  2.012
 ExtSpn:  IState=     6 X2= 1.028 Y2= 0.028 X2-Y2-1=-6.66D-16
          S2Grnd=  2.034 Ra=  0.001 Rb= -0.020 T= -0.002 S2Ext= -0.021 S2=  2.012
 ExtSpn:  IState=     7 X2= 1.003 Y2= 0.003 X2-Y2-1= 6.66D-16
          S2Grnd=  2.034 Ra= -0.006 Rb=  0.000 T= -0.004 S2Ext= -0.009 S2=  2.025
 ExtSpn:  IState=     8 X2= 1.003 Y2= 0.003 X2-Y2-1= 0.00D+00
          S2Grnd=  2.034 Ra= -0.006 Rb=  0.000 T= -0.004 S2Ext= -0.009 S2=  2.025
 ExtSpn:  IState=     9 X2= 1.027 Y2= 0.027 X2-Y2-1=-4.44D-16
          S2Grnd=  2.034 Ra=  0.038 Rb=  0.964 T=  0.386 S2Ext=  1.387 S2=  3.421
 ExtSpn:  IState=    10 X2= 1.027 Y2= 0.027 X2-Y2-1=-3.33D-16
          S2Grnd=  2.034 Ra=  0.038 Rb=  0.964 T=  0.386 S2Ext=  1.387 S2=  3.421
 ExtSpn:  IState=    11 X2= 1.025 Y2= 0.025 X2-Y2-1= 6.66D-16
          S2Grnd=  2.034 Ra=  0.503 Rb=  0.482 T=  0.988 S2Ext=  1.973 S2=  4.007
 ExtSpn:  IState=    12 X2= 1.004 Y2= 0.004 X2-Y2-1= 4.44D-16
          S2Grnd=  2.034 Ra=  0.002 Rb=  0.005 T=  0.000 S2Ext=  0.008 S2=  2.042
 1PDM for each excited state written to RWF  633
 Ground to excited state transition densities written to RWF  633
 Ground to excited state transition electric dipole moments (Au):
       state          X           Y           Z        Dip. S.      Osc.
         1         0.0000      0.0000      0.0000      0.0000      0.0000
         2         0.0000      0.0000      0.0000      0.0000      0.0000
         3         0.0000      0.0000      0.0000      0.0000      0.0000
         4         0.0000      0.0000     -1.0021      1.0042      0.1719
         5         0.0000      0.0000      0.0000      0.0000      0.0000
         6         0.0000      0.0000      0.0000      0.0000      0.0000
         7         0.0075      0.0011      0.0000      0.0001      0.0000
         8        -0.0011      0.0075      0.0000      0.0001      0.0000
         9         0.0000      0.0000      0.0000      0.0000      0.0000
        10         0.0000      0.0000      0.0000      0.0000      0.0000
        11         0.0000      0.0000      0.1752      0.0307      0.0114
        12        -0.4933     -0.0742      0.0000      0.2488      0.1016
 Ground to excited state transition velocity dipole moments (Au):
       state          X           Y           Z        Dip. S.      Osc.
         1         0.0000      0.0000      0.0000      0.0000      0.0000
         2         0.0000      0.0000      0.0000      0.0000      0.0000
         3         0.0000      0.0000      0.0000      0.0000      0.0000
         4         0.0000      0.0000      0.2263      0.0512      0.1329
         5         0.0000      0.0000      0.0000      0.0000      0.0000
         6         0.0000      0.0000      0.0000      0.0000      0.0000
         7        -0.0044     -0.0007      0.0000      0.0000      0.0000
         8         0.0007     -0.0044      0.0000      0.0000      0.0000
         9         0.0000      0.0000      0.0000      0.0000      0.0000
        10         0.0000      0.0000      0.0000      0.0000      0.0000
        11         0.0000      0.0000     -0.0762      0.0058      0.0069
        12         0.3089      0.0465      0.0000      0.0976      0.1062
 Ground to excited state transition magnetic dipole moments (Au):
       state          X           Y           Z
         1         0.0000      0.0000      0.0000
         2         0.0000      0.0000      0.0000
         3         0.0000      0.0000      0.0000
         4         0.0000      0.0000      0.0000
         5        -1.1533     -0.2917      0.0000
         6        -0.2917      1.1533      0.0000
         7         0.0000      0.0000      0.0000
         8         0.0000      0.0000      0.0000
         9        -0.5198     -0.1315      0.0000
        10        -0.1315      0.5198      0.0000
        11         0.0000      0.0000      0.0000
        12         0.0000      0.0000      0.0000
 Ground to excited state transition velocity quadrupole moments (Au):
       state          XX          YY          ZZ          XY          XZ          YZ
         1         0.0000      0.0000      0.0000      0.0000      0.0000      0.0000
         2         0.0000      0.0000      0.0000      0.0000      0.0000      0.0000
         3         0.0000      0.0000      0.0000      0.0000      0.0000      0.0000
         4         0.0000      0.0000      0.0000      0.0000      0.0000      0.0000
         5         0.0000      0.0000      0.0000      0.0000     -0.0386      0.1528
         6         0.0000      0.0000      0.0000      0.0000      0.1528      0.0386
         7         0.0000      0.0000      0.0000      0.0000      0.0000      0.0000
         8         0.0000      0.0000      0.0000      0.0000      0.0000      0.0000
         9         0.0000      0.0000      0.0000      0.0000      0.0048     -0.0191
        10         0.0000      0.0000      0.0000      0.0000     -0.0191     -0.0048
        11         0.0000      0.0000      0.0000      0.0000      0.0000      0.0000
        12         0.0000      0.0000      0.0000      0.0000      0.0000      0.0000
 <0|del|b> * <b|rxdel|0> + <0|del|b> * <b|delr+rdel|0>
 Rotatory Strengths (R) in cgs (10**-40 erg-esu-cm/Gauss)
       state          XX          YY          ZZ    R(velocity)    E-M Angle
         1         0.0000      0.0000      0.0000      0.0000       90.00
         2         0.0000      0.0000      0.0000      0.0000       90.00
         3         0.0000      0.0000      0.0000      0.0000       90.00
         4         0.0000      0.0000      0.0000      0.0000       90.00
         5         0.0000      0.0000      0.0000      0.0000       90.00
         6         0.0000      0.0000      0.0000      0.0000       90.00
         7         0.0000      0.0000      0.0000      0.0000       90.00
         8         0.0000      0.0000      0.0000      0.0000       90.00
         9         0.0000      0.0000      0.0000      0.0000       90.00
        10         0.0000      0.0000      0.0000      0.0000       90.00
        11         0.0000      0.0000      0.0000      0.0000       90.00
        12         0.0000      0.0000      0.0000      0.0000       90.00
 1/2[<0|r|b>*<b|rxdel|0> + (<0|rxdel|b>*<b|r|0>)*]
 Rotatory Strengths (R) in cgs (10**-40 erg-esu-cm/Gauss)
       state          XX          YY          ZZ     R(length)
         1         0.0000      0.0000      0.0000      0.0000
         2         0.0000      0.0000      0.0000      0.0000
         3         0.0000      0.0000      0.0000      0.0000
         4         0.0000      0.0000      0.0000      0.0000
         5         0.0000      0.0000      0.0000      0.0000
         6         0.0000      0.0000      0.0000      0.0000
         7         0.0000      0.0000      0.0000      0.0000
         8         0.0000      0.0000      0.0000      0.0000
         9         0.0000      0.0000      0.0000      0.0000
        10         0.0000      0.0000      0.0000      0.0000
        11         0.0000      0.0000      0.0000      0.0000
        12         0.0000      0.0000      0.0000      0.0000
  1/2[<0|del|b>*<b|r|0> + (<0|r|b>*<b|del|0>)*] (Au)
       state          X           Y           Z        Dip. S.   Osc.(frdel)
         1         0.0000      0.0000      0.0000      0.0000      0.0000
         2         0.0000      0.0000      0.0000      0.0000      0.0000
         3         0.0000      0.0000      0.0000      0.0000      0.0000
         4         0.0000      0.0000     -0.2267      0.2267      0.1512
         5         0.0000      0.0000      0.0000      0.0000      0.0000
         6         0.0000      0.0000      0.0000      0.0000      0.0000
         7         0.0000      0.0000      0.0000      0.0000      0.0000
         8         0.0000      0.0000      0.0000      0.0000      0.0000
         9         0.0000      0.0000      0.0000      0.0000      0.0000
        10         0.0000      0.0000      0.0000      0.0000      0.0000
        11         0.0000      0.0000     -0.0133      0.0133      0.0089
        12        -0.1524     -0.0035      0.0000      0.1558      0.1039

 Excitation energies and oscillator strengths:
 
 Excited state symmetry could not be determined.
 Excited State   1:  3.003-?Sym    1.8351 eV  675.63 nm  f=0.0000  <S**2>=2.005
      6B ->  8B       -0.26235
      6B ->  9B       -0.88007
      7B ->  8B       -0.88007
      7B ->  9B        0.26235
      6B <-  8B       -0.16845
      6B <-  9B       -0.56507
      7B <-  8B       -0.56507
      7B <-  9B        0.16845
 This state for optimization and/or second-order correction.
 Total Energy, E(TD-HF/TD-KS) =  -149.560362922    
 Copying the excited state density for this state as the 1-particle RhoCI density.
 
 Excited state symmetry could not be determined.
 Excited State   2:  3.003-?Sym    1.8351 eV  675.63 nm  f=0.0000  <S**2>=2.005
      6B ->  8B       -0.88007
      6B ->  9B        0.26235
      7B ->  8B        0.26235
      7B ->  9B        0.88007
      6B <-  8B       -0.56507
      6B <-  9B        0.16845
      7B <-  8B        0.16845
      7B <-  9B        0.56507
 
 LASSW sees vector with all elements less than  0.100000000000E-03
 LASSW sees vector with all elements less than  0.100000000000E-03
 LASSW sees vector with all elements less than  0.100000000000E-03
 LASSW sees vector with all elements less than  0.100000000000E-03
 Excited state symmetry could not be determined.
 Excited State   3:  3.015-?Sym    2.6535 eV  467.25 nm  f=0.0000  <S**2>=2.023
      6B ->  8B       -0.47225
      6B ->  9B        0.68181
      7B ->  8B       -0.68181
      7B ->  9B       -0.47225
      6B <-  8B        0.24943
      6B <-  9B       -0.36011
      7B <-  8B        0.36011
      7B <-  9B        0.24943
 
 Excited state symmetry could not be determined.
 Excited State   4:  3.014-?Sym    6.9889 eV  177.40 nm  f=0.1719  <S**2>=2.021
      7A -> 10A        0.25437
      7A -> 13A        0.10032
      5B -> 10B        0.13327
      6B ->  8B        0.55700
      6B ->  9B        0.38580
      7B ->  8B       -0.38580
      7B ->  9B        0.55700
      7A <- 10A        0.11927
 
 Excited state symmetry could not be determined.
 Excited State   5:  3.008-?Sym    7.0362 eV  176.21 nm  f=0.0000  <S**2>=2.012
      5B ->  8B        1.00128
      5B -> 16B       -0.10552
      6B <- 10B       -0.11689
 
 Excited state symmetry could not be determined.
 Excited State   6:  3.008-?Sym    7.0362 eV  176.21 nm  f=0.0000  <S**2>=2.012
      5B ->  9B        1.00128
      5B -> 17B       -0.10552
      7B <- 10B       -0.11689
 
 Excited state symmetry could not be determined.
 Excited State   7:  3.016-?Sym   11.4143 eV  108.62 nm  f=0.0000  <S**2>=2.025
      8A -> 10A        0.29610
      9A -> 10A        0.92792
      9A -> 13A        0.18441
      4B ->  9B       -0.10864
 
 Excited state symmetry could not be determined.
 Excited State   8:  3.016-?Sym   11.4143 eV  108.62 nm  f=0.0000  <S**2>=2.025
      8A -> 10A        0.92793
      8A -> 13A        0.18443
      9A -> 10A       -0.29610
      4B ->  8B       -0.10859
 
 Excited state symmetry could not be determined.
 Excited State   9:  3.832-?Sym   13.9453 eV   88.91 nm  f=0.0000  <S**2>=3.421
      5A -> 10A       -0.12095
      6A -> 10A        0.14889
      6B -> 10B        0.81445
      6B -> 11B        0.17602
      7B -> 10B       -0.52246
      7B -> 11B       -0.11291
      5B <-  8B       -0.14389
 
 Excited state symmetry could not be determined.
 Excited State  10:  3.832-?Sym   13.9453 eV   88.91 nm  f=0.0000  <S**2>=3.421
      5A -> 10A       -0.14889
      6A -> 10A       -0.12095
      6B -> 10B        0.52246
      6B -> 11B        0.11291
      7B -> 10B        0.81445
      7B -> 11B        0.17602
      5B <-  9B       -0.14389
 
 Excited state symmetry could not be determined.
 Excited State  11:  4.126-?Sym   15.2041 eV   81.55 nm  f=0.0114  <S**2>=4.007
      7A -> 10A        0.69678
      7A -> 13A        0.15554
      5B -> 10B       -0.67357
      5B -> 11B       -0.17955
 
 Excited state symmetry could not be determined.
 Excited State  12:  3.028-?Sym   16.6624 eV   74.41 nm  f=0.1016  <S**2>=2.042
      4B ->  8B       -0.13103
      4B ->  9B        0.97368
 SavETr:  write IOETrn=   770 NScale= 10 NData=  16 NLR=1 NState=   12 LETran=     226.
 Leave Link  914 at Wed Oct 28 10:12:18 2015, MaxMem=    33554432 cpu:               0.3 elap:               0.3
 (Enter /home/gauss/gdvi03p/gdv/l601.exe)
 Copying SCF densities to generalized density rwf, IOpCl= 1 IROHF=0.

 **********************************************************************

            Population analysis using the SCF density.

 **********************************************************************

 Alpha  occ. eigenvalues --  -20.75355 -20.75291  -1.71046  -1.20524  -0.83430
 Alpha  occ. eigenvalues --   -0.83430  -0.75540  -0.55348  -0.55348
 Alpha virt. eigenvalues --    0.41584   1.05388   1.05388   1.05725   1.13302
 Alpha virt. eigenvalues --    1.16385   1.16385   1.17041   1.81696   2.36951
 Alpha virt. eigenvalues --    2.36951   2.63121   2.63121   2.93059   2.93059
 Alpha virt. eigenvalues --    3.11382   3.62424   3.62424   4.16594   5.39285
 Alpha virt. eigenvalues --    5.95948
  Beta  occ. eigenvalues --  -20.69981 -20.69865  -1.57862  -0.99762  -0.69566
  Beta  occ. eigenvalues --   -0.56806  -0.56806
  Beta virt. eigenvalues --    0.11049   0.11049   0.49321   1.08685   1.16869
  Beta virt. eigenvalues --    1.17307   1.17638   1.17638   1.28977   1.28977
  Beta virt. eigenvalues --    1.85813   2.44245   2.44245   2.74935   2.74935
  Beta virt. eigenvalues --    3.07872   3.07872   3.18409   3.70136   3.70136
  Beta virt. eigenvalues --    4.21236   5.44980   6.01370
     Alpha Molecular Orbital Coefficients:
                           1         2         3         4         5
                           O         O         O         O         O
     Eigenvalues --   -20.75355 -20.75291  -1.71046  -1.20524  -0.83430
   1 1   O  1S          0.70446   0.70457  -0.15276  -0.16395   0.00000
   2        2S          0.01309   0.01279   0.34999   0.37988   0.00000
   3        3S         -0.00032  -0.00173   0.25743   0.47525   0.00000
   4        4PX         0.00000   0.00000   0.00000   0.00000   0.28759
   5        4PY         0.00000   0.00000   0.00000   0.00000   0.38558
   6        4PZ        -0.00123  -0.00101  -0.14399   0.12563   0.00000
   7        5PX         0.00000   0.00000   0.00000   0.00000   0.15132
   8        5PY         0.00000   0.00000   0.00000   0.00000   0.20288
   9        5PZ         0.00055   0.00099  -0.03448   0.02314   0.00000
  10        6XX        -0.00122  -0.00111  -0.00242   0.00636   0.00000
  11        6YY        -0.00122  -0.00111  -0.00242   0.00636   0.00000
  12        6ZZ        -0.00187  -0.00134   0.02391  -0.02279   0.00000
  13        6XY         0.00000   0.00000   0.00000   0.00000   0.00000
  14        6XZ         0.00000   0.00000   0.00000   0.00000  -0.01471
  15        6YZ         0.00000   0.00000   0.00000   0.00000  -0.01972
  16 2   O  1S          0.70446  -0.70457  -0.15276   0.16395   0.00000
  17        2S          0.01309  -0.01279   0.34999  -0.37988   0.00000
  18        3S         -0.00032   0.00173   0.25743  -0.47525   0.00000
  19        4PX         0.00000   0.00000   0.00000   0.00000   0.28759
  20        4PY         0.00000   0.00000   0.00000   0.00000   0.38558
  21        4PZ         0.00123  -0.00101   0.14399   0.12563   0.00000
  22        5PX         0.00000   0.00000   0.00000   0.00000   0.15132
  23        5PY         0.00000   0.00000   0.00000   0.00000   0.20288
  24        5PZ        -0.00055   0.00099   0.03448   0.02314   0.00000
  25        6XX        -0.00122   0.00111  -0.00242  -0.00636   0.00000
  26        6YY        -0.00122   0.00111  -0.00242  -0.00636   0.00000
  27        6ZZ        -0.00187   0.00134   0.02391   0.02279   0.00000
  28        6XY         0.00000   0.00000   0.00000   0.00000   0.00000
  29        6XZ         0.00000   0.00000   0.00000   0.00000   0.01471
  30        6YZ         0.00000   0.00000   0.00000   0.00000   0.01972
                           6         7         8         9        10
                           O         O         O         O         V
     Eigenvalues --    -0.83430  -0.75540  -0.55348  -0.55348   0.41584
   1 1   O  1S          0.00000  -0.05243   0.00000   0.00000  -0.09262
   2        2S          0.00000   0.10202   0.00000   0.00000   0.18345
   3        3S          0.00000   0.26045   0.00000   0.00000   1.13652
   4        4PX         0.38558   0.00000   0.08598   0.53444   0.00000
   5        4PY        -0.28759   0.00000   0.53444  -0.08598   0.00000
   6        4PZ         0.00000   0.47247   0.00000   0.00000  -0.43334
   7        5PX         0.20288   0.00000   0.06032   0.37493   0.00000
   8        5PY        -0.15132   0.00000   0.37493  -0.06032   0.00000
   9        5PZ         0.00000   0.23841   0.00000   0.00000  -1.13193
  10        6XX         0.00000   0.00855   0.00000   0.00000   0.00482
  11        6YY         0.00000   0.00855   0.00000   0.00000   0.00482
  12        6ZZ         0.00000  -0.04515   0.00000   0.00000  -0.02421
  13        6XY         0.00000   0.00000   0.00000   0.00000   0.00000
  14        6XZ        -0.01972   0.00000   0.00080   0.00499   0.00000
  15        6YZ         0.01471   0.00000   0.00499  -0.00080   0.00000
  16 2   O  1S          0.00000  -0.05243   0.00000   0.00000   0.09262
  17        2S          0.00000   0.10202   0.00000   0.00000  -0.18345
  18        3S          0.00000   0.26045   0.00000   0.00000  -1.13652
  19        4PX         0.38558   0.00000  -0.08598  -0.53444   0.00000
  20        4PY        -0.28759   0.00000  -0.53444   0.08598   0.00000
  21        4PZ         0.00000  -0.47247   0.00000   0.00000  -0.43334
  22        5PX         0.20288   0.00000  -0.06032  -0.37493   0.00000
  23        5PY        -0.15132   0.00000  -0.37493   0.06032   0.00000
  24        5PZ         0.00000  -0.23841   0.00000   0.00000  -1.13193
  25        6XX         0.00000   0.00855   0.00000   0.00000  -0.00482
  26        6YY         0.00000   0.00855   0.00000   0.00000  -0.00482
  27        6ZZ         0.00000  -0.04515   0.00000   0.00000   0.02421
  28        6XY         0.00000   0.00000   0.00000   0.00000   0.00000
  29        6XZ         0.01972   0.00000   0.00080   0.00499   0.00000
  30        6YZ        -0.01471   0.00000   0.00499  -0.00080   0.00000
                          11        12        13        14        15
                           V         V         V         V         V
     Eigenvalues --     1.05388   1.05388   1.05725   1.13302   1.16385
   1 1   O  1S          0.00000   0.00000   0.01207   0.00723   0.00000
   2        2S          0.00000   0.00000  -0.05811  -0.64669   0.00000
   3        3S          0.00000   0.00000  -0.78204   0.98222   0.00000
   4        4PX        -0.43048   0.49607   0.00000   0.00000   0.02451
   5        4PY         0.49607   0.43048   0.00000   0.00000  -0.62604
   6        4PZ         0.00000   0.00000  -0.68256  -0.42294   0.00000
   7        5PX         0.41760  -0.48124   0.00000   0.00000  -0.04142
   8        5PY        -0.48124  -0.41760   0.00000   0.00000   1.05791
   9        5PZ         0.00000   0.00000   1.27243   0.53830   0.00000
  10        6XX         0.00000   0.00000   0.00448  -0.14177   0.00000
  11        6YY         0.00000   0.00000   0.00448  -0.14177   0.00000
  12        6ZZ         0.00000   0.00000  -0.13048  -0.11170   0.00000
  13        6XY         0.00000   0.00000   0.00000   0.00000   0.00000
  14        6XZ         0.02162  -0.02492   0.00000   0.00000  -0.00048
  15        6YZ        -0.02492  -0.02162   0.00000   0.00000   0.01215
  16 2   O  1S          0.00000   0.00000  -0.01207   0.00723   0.00000
  17        2S          0.00000   0.00000   0.05811  -0.64669   0.00000
  18        3S          0.00000   0.00000   0.78204   0.98222   0.00000
  19        4PX        -0.43048   0.49607   0.00000   0.00000  -0.02451
  20        4PY         0.49607   0.43048   0.00000   0.00000   0.62604
  21        4PZ         0.00000   0.00000  -0.68256   0.42294   0.00000
  22        5PX         0.41760  -0.48124   0.00000   0.00000   0.04142
  23        5PY        -0.48124  -0.41760   0.00000   0.00000  -1.05791
  24        5PZ         0.00000   0.00000   1.27243  -0.53830   0.00000
  25        6XX         0.00000   0.00000  -0.00448  -0.14177   0.00000
  26        6YY         0.00000   0.00000  -0.00448  -0.14177   0.00000
  27        6ZZ         0.00000   0.00000   0.13048  -0.11170   0.00000
  28        6XY         0.00000   0.00000   0.00000   0.00000   0.00000
  29        6XZ        -0.02162   0.02492   0.00000   0.00000  -0.00048
  30        6YZ         0.02492   0.02162   0.00000   0.00000   0.01215
                          16        17        18        19        20
                           V         V         V         V         V
     Eigenvalues --     1.16385   1.17041   1.81696   2.36951   2.36951
   1 1   O  1S          0.00000   0.02483  -0.06542   0.00000   0.00000
   2        2S          0.00000   0.58755  -1.21586   0.00000   0.00000
   3        3S          0.00000  -0.60720   3.72031   0.00000   0.00000
   4        4PX        -0.62604   0.00000   0.00000  -0.04628   0.06226
   5        4PY        -0.02451   0.00000   0.00000   0.06226   0.04628
   6        4PZ         0.00000  -0.40656   0.09231   0.00000   0.00000
   7        5PX         1.05791   0.00000   0.00000  -0.02014   0.02709
   8        5PY         0.04142   0.00000   0.00000   0.02709   0.02014
   9        5PZ         0.00000   0.61856  -1.72041   0.00000   0.00000
  10        6XX         0.00000   0.06590  -0.18695   0.00000   0.00000
  11        6YY         0.00000   0.06590  -0.18695   0.00000   0.00000
  12        6ZZ         0.00000   0.27320  -0.20770   0.00000   0.00000
  13        6XY         0.00000   0.00000   0.00000   0.00000   0.00000
  14        6XZ         0.01215   0.00000   0.00000  -0.38247   0.51450
  15        6YZ         0.00048   0.00000   0.00000   0.51450   0.38247
  16 2   O  1S          0.00000   0.02483   0.06542   0.00000   0.00000
  17        2S          0.00000   0.58755   1.21586   0.00000   0.00000
  18        3S          0.00000  -0.60720  -3.72031   0.00000   0.00000
  19        4PX         0.62604   0.00000   0.00000  -0.04628   0.06226
  20        4PY         0.02451   0.00000   0.00000   0.06226   0.04628
  21        4PZ         0.00000   0.40656   0.09231   0.00000   0.00000
  22        5PX        -1.05791   0.00000   0.00000  -0.02014   0.02709
  23        5PY        -0.04142   0.00000   0.00000   0.02709   0.02014
  24        5PZ         0.00000  -0.61856  -1.72041   0.00000   0.00000
  25        6XX         0.00000   0.06590   0.18695   0.00000   0.00000
  26        6YY         0.00000   0.06590   0.18695   0.00000   0.00000
  27        6ZZ         0.00000   0.27320   0.20770   0.00000   0.00000
  28        6XY         0.00000   0.00000   0.00000   0.00000   0.00000
  29        6XZ         0.01215   0.00000   0.00000   0.38247  -0.51450
  30        6YZ         0.00048   0.00000   0.00000  -0.51450  -0.38247
                          21        22        23        24        25
                           V         V         V         V         V
     Eigenvalues --     2.63121   2.63121   2.93059   2.93059   3.11382
   1 1   O  1S          0.00000   0.00000   0.00000   0.00000   0.00165
   2        2S          0.00000   0.00000   0.00000   0.00000  -0.34232
   3        3S          0.00000   0.00000   0.00000   0.00000   0.21158
   4        4PX         0.00000   0.00000   0.00000   0.00000   0.00000
   5        4PY         0.00000   0.00000   0.00000   0.00000   0.00000
   6        4PZ         0.00000   0.00000   0.00000   0.00000   0.35078
   7        5PX         0.00000   0.00000   0.00000   0.00000   0.00000
   8        5PY         0.00000   0.00000   0.00000   0.00000   0.00000
   9        5PZ         0.00000   0.00000   0.00000   0.00000  -0.30004
  10        6XX         0.59947   0.00154   0.62615   0.00136  -0.36587
  11        6YY        -0.59947  -0.00154  -0.62615  -0.00136  -0.36587
  12        6ZZ         0.00000   0.00000   0.00000   0.00000   0.60746
  13        6XY        -0.00178   0.69220  -0.00157   0.72301   0.00000
  14        6XZ         0.00000   0.00000   0.00000   0.00000   0.00000
  15        6YZ         0.00000   0.00000   0.00000   0.00000   0.00000
  16 2   O  1S          0.00000   0.00000   0.00000   0.00000   0.00165
  17        2S          0.00000   0.00000   0.00000   0.00000  -0.34232
  18        3S          0.00000   0.00000   0.00000   0.00000   0.21158
  19        4PX         0.00000   0.00000   0.00000   0.00000   0.00000
  20        4PY         0.00000   0.00000   0.00000   0.00000   0.00000
  21        4PZ         0.00000   0.00000   0.00000   0.00000  -0.35078
  22        5PX         0.00000   0.00000   0.00000   0.00000   0.00000
  23        5PY         0.00000   0.00000   0.00000   0.00000   0.00000
  24        5PZ         0.00000   0.00000   0.00000   0.00000   0.30004
  25        6XX         0.59947   0.00154  -0.62615  -0.00136  -0.36587
  26        6YY        -0.59947  -0.00154   0.62615   0.00136  -0.36587
  27        6ZZ         0.00000   0.00000   0.00000   0.00000   0.60746
  28        6XY        -0.00178   0.69220   0.00157  -0.72301   0.00000
  29        6XZ         0.00000   0.00000   0.00000   0.00000   0.00000
  30        6YZ         0.00000   0.00000   0.00000   0.00000   0.00000
                          26        27        28        29        30
                           V         V         V         V         V
     Eigenvalues --     3.62424   3.62424   4.16594   5.39285   5.95948
   1 1   O  1S          0.00000   0.00000  -0.08864  -0.28590  -0.31260
   2        2S          0.00000   0.00000  -0.29751   1.24848   1.09410
   3        3S          0.00000   0.00000   2.12995   0.82493   2.08291
   4        4PX         0.01156   0.00596   0.00000   0.00000   0.00000
   5        4PY        -0.00596   0.01156   0.00000   0.00000   0.00000
   6        4PZ         0.00000   0.00000  -0.32593  -0.01415   0.16194
   7        5PX        -0.24400  -0.12582   0.00000   0.00000   0.00000
   8        5PY         0.12582  -0.24400   0.00000   0.00000   0.00000
   9        5PZ         0.00000   0.00000  -1.23202  -0.05212  -0.57674
  10        6XX         0.00000   0.00000  -0.56260  -0.99684  -1.03870
  11        6YY         0.00000   0.00000  -0.56260  -0.99684  -1.03870
  12        6ZZ         0.00000   0.00000   0.97496  -0.82644  -1.21579
  13        6XY         0.00000   0.00000   0.00000   0.00000   0.00000
  14        6XZ         0.73893   0.38105   0.00000   0.00000   0.00000
  15        6YZ        -0.38105   0.73893   0.00000   0.00000   0.00000
  16 2   O  1S          0.00000   0.00000   0.08864  -0.28590   0.31260
  17        2S          0.00000   0.00000   0.29751   1.24848  -1.09410
  18        3S          0.00000   0.00000  -2.12995   0.82493  -2.08291
  19        4PX        -0.01156  -0.00596   0.00000   0.00000   0.00000
  20        4PY         0.00596  -0.01156   0.00000   0.00000   0.00000
  21        4PZ         0.00000   0.00000  -0.32593   0.01415   0.16194
  22        5PX         0.24400   0.12582   0.00000   0.00000   0.00000
  23        5PY        -0.12582   0.24400   0.00000   0.00000   0.00000
  24        5PZ         0.00000   0.00000  -1.23202   0.05212  -0.57674
  25        6XX         0.00000   0.00000   0.56260  -0.99684   1.03870
  26        6YY         0.00000   0.00000   0.56260  -0.99684   1.03870
  27        6ZZ         0.00000   0.00000  -0.97496  -0.82644   1.21579
  28        6XY         0.00000   0.00000   0.00000   0.00000   0.00000
  29        6XZ         0.73893   0.38105   0.00000   0.00000   0.00000
  30        6YZ        -0.38105   0.73893   0.00000   0.00000   0.00000
     Beta Molecular Orbital Coefficients:
                           1         2         3         4         5
                           O         O         O         O         O
     Eigenvalues --   -20.69981 -20.69865  -1.57862  -0.99762  -0.69566
   1 1   O  1S          0.70516   0.70532  -0.14665  -0.15530  -0.06000
   2        2S          0.00968   0.00938   0.31086   0.34581   0.10560
   3        3S         -0.00071  -0.00255   0.26869   0.43976   0.29652
   4        4PX         0.00000   0.00000   0.00000   0.00000   0.00000
   5        4PY         0.00000   0.00000   0.00000   0.00000   0.00000
   6        4PZ        -0.00117  -0.00122  -0.16790   0.15159   0.45513
   7        5PX         0.00000   0.00000   0.00000   0.00000   0.00000
   8        5PY         0.00000   0.00000   0.00000   0.00000   0.00000
   9        5PZ         0.00044   0.00096  -0.04984   0.08320   0.24870
  10        6XX        -0.00065  -0.00053  -0.01002  -0.00090   0.00131
  11        6YY        -0.00065  -0.00053  -0.01002  -0.00090   0.00131
  12        6ZZ        -0.00046   0.00055   0.03887  -0.00254  -0.03692
  13        6XY         0.00000   0.00000   0.00000   0.00000   0.00000
  14        6XZ         0.00000   0.00000   0.00000   0.00000   0.00000
  15        6YZ         0.00000   0.00000   0.00000   0.00000   0.00000
  16 2   O  1S          0.70516  -0.70532  -0.14665   0.15530  -0.06000
  17        2S          0.00968  -0.00938   0.31086  -0.34581   0.10560
  18        3S         -0.00071   0.00255   0.26869  -0.43976   0.29652
  19        4PX         0.00000   0.00000   0.00000   0.00000   0.00000
  20        4PY         0.00000   0.00000   0.00000   0.00000   0.00000
  21        4PZ         0.00117  -0.00122   0.16790   0.15159  -0.45513
  22        5PX         0.00000   0.00000   0.00000   0.00000   0.00000
  23        5PY         0.00000   0.00000   0.00000   0.00000   0.00000
  24        5PZ        -0.00044   0.00096   0.04984   0.08320  -0.24870
  25        6XX        -0.00065   0.00053  -0.01002   0.00090   0.00131
  26        6YY        -0.00065   0.00053  -0.01002   0.00090   0.00131
  27        6ZZ        -0.00046  -0.00055   0.03887   0.00254  -0.03692
  28        6XY         0.00000   0.00000   0.00000   0.00000   0.00000
  29        6XZ         0.00000   0.00000   0.00000   0.00000   0.00000
  30        6YZ         0.00000   0.00000   0.00000   0.00000   0.00000
                           6         7         8         9        10
                           O         O         V         V         V
     Eigenvalues --    -0.56806  -0.56806   0.11049   0.11049   0.49321
   1 1   O  1S          0.00000   0.00000   0.00000   0.00000  -0.10576
   2        2S          0.00000   0.00000   0.00000   0.00000   0.18608
   3        3S          0.00000   0.00000   0.00000   0.00000   1.28527
   4        4PX         0.12815   0.38333  -0.12375   0.42530   0.00000
   5        4PY         0.38333  -0.12815   0.42530   0.12375   0.00000
   6        4PZ         0.00000   0.00000   0.00000   0.00000  -0.39449
   7        5PX         0.10138   0.30327  -0.14857   0.51059   0.00000
   8        5PY         0.30327  -0.10138   0.51059   0.14857   0.00000
   9        5PZ         0.00000   0.00000   0.00000   0.00000  -1.21947
  10        6XX         0.00000   0.00000   0.00000   0.00000  -0.00040
  11        6YY         0.00000   0.00000   0.00000   0.00000  -0.00040
  12        6ZZ         0.00000   0.00000   0.00000   0.00000  -0.01536
  13        6XY         0.00000   0.00000   0.00000   0.00000   0.00000
  14        6XZ        -0.01271  -0.03803  -0.00194   0.00667   0.00000
  15        6YZ        -0.03803   0.01271   0.00667   0.00194   0.00000
  16 2   O  1S          0.00000   0.00000   0.00000   0.00000   0.10576
  17        2S          0.00000   0.00000   0.00000   0.00000  -0.18608
  18        3S          0.00000   0.00000   0.00000   0.00000  -1.28527
  19        4PX         0.12815   0.38333   0.12375  -0.42530   0.00000
  20        4PY         0.38333  -0.12815  -0.42530  -0.12375   0.00000
  21        4PZ         0.00000   0.00000   0.00000   0.00000  -0.39449
  22        5PX         0.10138   0.30327   0.14857  -0.51059   0.00000
  23        5PY         0.30327  -0.10138  -0.51059  -0.14857   0.00000
  24        5PZ         0.00000   0.00000   0.00000   0.00000  -1.21947
  25        6XX         0.00000   0.00000   0.00000   0.00000   0.00040
  26        6YY         0.00000   0.00000   0.00000   0.00000   0.00040
  27        6ZZ         0.00000   0.00000   0.00000   0.00000   0.01536
  28        6XY         0.00000   0.00000   0.00000   0.00000   0.00000
  29        6XZ         0.01271   0.03803  -0.00194   0.00667   0.00000
  30        6YZ         0.03803  -0.01271   0.00667   0.00194   0.00000
                          11        12        13        14        15
                           V         V         V         V         V
     Eigenvalues --     1.08685   1.16869   1.17307   1.17638   1.17638
   1 1   O  1S          0.00815   0.02488  -0.01016   0.00000   0.00000
   2        2S         -0.04371  -0.00543  -0.86908   0.00000   0.00000
   3        3S         -0.74985   0.20851   1.12789   0.00000   0.00000
   4        4PX         0.00000   0.00000   0.00000   0.54295   0.44582
   5        4PY         0.00000   0.00000   0.00000  -0.44582   0.54295
   6        4PZ        -0.69864  -0.59678  -0.04329   0.00000   0.00000
   7        5PX         0.00000   0.00000   0.00000  -0.46896  -0.38507
   8        5PY         0.00000   0.00000   0.00000   0.38507  -0.46896
   9        5PZ         1.23330   0.81762  -0.02081   0.00000   0.00000
  10        6XX         0.00558  -0.04488  -0.15129   0.00000   0.00000
  11        6YY         0.00558  -0.04488  -0.15129   0.00000   0.00000
  12        6ZZ        -0.13652   0.12050  -0.28068   0.00000   0.00000
  13        6XY         0.00000   0.00000   0.00000   0.00000   0.00000
  14        6XZ         0.00000   0.00000   0.00000  -0.04094  -0.03362
  15        6YZ         0.00000   0.00000   0.00000   0.03362  -0.04094
  16 2   O  1S         -0.00815   0.02488  -0.01016   0.00000   0.00000
  17        2S          0.04371  -0.00543  -0.86908   0.00000   0.00000
  18        3S          0.74985   0.20851   1.12789   0.00000   0.00000
  19        4PX         0.00000   0.00000   0.00000   0.54295   0.44582
  20        4PY         0.00000   0.00000   0.00000  -0.44582   0.54295
  21        4PZ        -0.69864   0.59678   0.04329   0.00000   0.00000
  22        5PX         0.00000   0.00000   0.00000  -0.46896  -0.38507
  23        5PY         0.00000   0.00000   0.00000   0.38507  -0.46896
  24        5PZ         1.23330  -0.81762   0.02081   0.00000   0.00000
  25        6XX        -0.00558  -0.04488  -0.15129   0.00000   0.00000
  26        6YY        -0.00558  -0.04488  -0.15129   0.00000   0.00000
  27        6ZZ         0.13652   0.12050  -0.28068   0.00000   0.00000
  28        6XY         0.00000   0.00000   0.00000   0.00000   0.00000
  29        6XZ         0.00000   0.00000   0.00000   0.04094   0.03362
  30        6YZ         0.00000   0.00000   0.00000  -0.03362   0.04094
                          16        17        18        19        20
                           V         V         V         V         V
     Eigenvalues --     1.28977   1.28977   1.85813   2.44245   2.44245
   1 1   O  1S          0.00000   0.00000  -0.06460   0.00000   0.00000
   2        2S          0.00000   0.00000  -1.21441   0.00000   0.00000
   3        3S          0.00000   0.00000   3.70037   0.00000   0.00000
   4        4PX        -0.00765  -0.69954   0.00000   0.02677   0.10568
   5        4PY        -0.69954   0.00765   0.00000   0.10568  -0.02677
   6        4PZ         0.00000   0.00000   0.09864   0.00000   0.00000
   7        5PX         0.01085   0.99239   0.00000   0.00658   0.02596
   8        5PY         0.99239  -0.01085   0.00000   0.02596  -0.00658
   9        5PZ         0.00000   0.00000  -1.69522   0.00000   0.00000
  10        6XX         0.00000   0.00000  -0.19315   0.00000   0.00000
  11        6YY         0.00000   0.00000  -0.19315   0.00000   0.00000
  12        6ZZ         0.00000   0.00000  -0.21823   0.00000   0.00000
  13        6XY         0.00000   0.00000   0.00000   0.00000   0.00000
  14        6XZ         0.00008   0.00717   0.00000   0.15691   0.61940
  15        6YZ         0.00717  -0.00008   0.00000   0.61940  -0.15691
  16 2   O  1S          0.00000   0.00000   0.06460   0.00000   0.00000
  17        2S          0.00000   0.00000   1.21441   0.00000   0.00000
  18        3S          0.00000   0.00000  -3.70037   0.00000   0.00000
  19        4PX         0.00765   0.69954   0.00000   0.02677   0.10568
  20        4PY         0.69954  -0.00765   0.00000   0.10568  -0.02677
  21        4PZ         0.00000   0.00000   0.09864   0.00000   0.00000
  22        5PX        -0.01085  -0.99239   0.00000   0.00658   0.02596
  23        5PY        -0.99239   0.01085   0.00000   0.02596  -0.00658
  24        5PZ         0.00000   0.00000  -1.69522   0.00000   0.00000
  25        6XX         0.00000   0.00000   0.19315   0.00000   0.00000
  26        6YY         0.00000   0.00000   0.19315   0.00000   0.00000
  27        6ZZ         0.00000   0.00000   0.21823   0.00000   0.00000
  28        6XY         0.00000   0.00000   0.00000   0.00000   0.00000
  29        6XZ         0.00008   0.00717   0.00000  -0.15691  -0.61940
  30        6YZ         0.00717  -0.00008   0.00000  -0.61940   0.15691
                          21        22        23        24        25
                           V         V         V         V         V
     Eigenvalues --     2.74935   2.74935   3.07872   3.07872   3.18409
   1 1   O  1S          0.00000   0.00000   0.00000   0.00000   0.00344
   2        2S          0.00000   0.00000   0.00000   0.00000  -0.35530
   3        3S          0.00000   0.00000   0.00000   0.00000   0.22279
   4        4PX         0.00000   0.00000   0.00000   0.00000   0.00000
   5        4PY         0.00000   0.00000   0.00000   0.00000   0.00000
   6        4PZ         0.00000   0.00000   0.00000   0.00000   0.34319
   7        5PX         0.00000   0.00000   0.00000   0.00000   0.00000
   8        5PY         0.00000   0.00000   0.00000   0.00000   0.00000
   9        5PZ         0.00000   0.00000   0.00000   0.00000  -0.29544
  10        6XX         0.59944   0.00618   0.62615   0.00066  -0.37347
  11        6YY        -0.59944  -0.00618  -0.62615  -0.00066  -0.37347
  12        6ZZ         0.00000   0.00000   0.00000   0.00000   0.60037
  13        6XY        -0.00714   0.69217  -0.00077   0.72301   0.00000
  14        6XZ         0.00000   0.00000   0.00000   0.00000   0.00000
  15        6YZ         0.00000   0.00000   0.00000   0.00000   0.00000
  16 2   O  1S          0.00000   0.00000   0.00000   0.00000   0.00344
  17        2S          0.00000   0.00000   0.00000   0.00000  -0.35530
  18        3S          0.00000   0.00000   0.00000   0.00000   0.22279
  19        4PX         0.00000   0.00000   0.00000   0.00000   0.00000
  20        4PY         0.00000   0.00000   0.00000   0.00000   0.00000
  21        4PZ         0.00000   0.00000   0.00000   0.00000  -0.34319
  22        5PX         0.00000   0.00000   0.00000   0.00000   0.00000
  23        5PY         0.00000   0.00000   0.00000   0.00000   0.00000
  24        5PZ         0.00000   0.00000   0.00000   0.00000   0.29544
  25        6XX         0.59944   0.00618  -0.62615  -0.00066  -0.37347
  26        6YY        -0.59944  -0.00618   0.62615   0.00066  -0.37347
  27        6ZZ         0.00000   0.00000   0.00000   0.00000   0.60037
  28        6XY        -0.00714   0.69217   0.00077  -0.72301   0.00000
  29        6XZ         0.00000   0.00000   0.00000   0.00000   0.00000
  30        6YZ         0.00000   0.00000   0.00000   0.00000   0.00000
                          26        27        28        29        30
                           V         V         V         V         V
     Eigenvalues --     3.70136   3.70136   4.21236   5.44980   6.01370
   1 1   O  1S          0.00000   0.00000  -0.08650  -0.28578  -0.31205
   2        2S          0.00000   0.00000  -0.30551   1.25815   1.10500
   3        3S          0.00000   0.00000   2.12300   0.81698   2.05854
   4        4PX         0.00824   0.00468   0.00000   0.00000   0.00000
   5        4PY        -0.00468   0.00824   0.00000   0.00000   0.00000
   6        4PZ         0.00000   0.00000  -0.32787  -0.01598   0.16277
   7        5PX        -0.23456  -0.13316   0.00000   0.00000   0.00000
   8        5PY         0.13316  -0.23456   0.00000   0.00000   0.00000
   9        5PZ         0.00000   0.00000  -1.22515  -0.05099  -0.56689
  10        6XX         0.00000   0.00000  -0.56482  -0.99378  -1.03639
  11        6YY         0.00000   0.00000  -0.56482  -0.99378  -1.03639
  12        6ZZ         0.00000   0.00000   0.97224  -0.82773  -1.21581
  13        6XY         0.00000   0.00000   0.00000   0.00000   0.00000
  14        6XZ         0.72304   0.41049   0.00000   0.00000   0.00000
  15        6YZ        -0.41049   0.72304   0.00000   0.00000   0.00000
  16 2   O  1S          0.00000   0.00000   0.08650  -0.28578   0.31205
  17        2S          0.00000   0.00000   0.30551   1.25815  -1.10500
  18        3S          0.00000   0.00000  -2.12300   0.81698  -2.05854
  19        4PX        -0.00824  -0.00468   0.00000   0.00000   0.00000
  20        4PY         0.00468  -0.00824   0.00000   0.00000   0.00000
  21        4PZ         0.00000   0.00000  -0.32787   0.01598   0.16277
  22        5PX         0.23456   0.13316   0.00000   0.00000   0.00000
  23        5PY        -0.13316   0.23456   0.00000   0.00000   0.00000
  24        5PZ         0.00000   0.00000  -1.22515   0.05099  -0.56689
  25        6XX         0.00000   0.00000   0.56482  -0.99378   1.03639
  26        6YY         0.00000   0.00000   0.56482  -0.99378   1.03639
  27        6ZZ         0.00000   0.00000  -0.97224  -0.82773   1.21581
  28        6XY         0.00000   0.00000   0.00000   0.00000   0.00000
  29        6XZ         0.72304   0.41049   0.00000   0.00000   0.00000
  30        6YZ        -0.41049   0.72304   0.00000   0.00000   0.00000
     Alpha Density Matrix:
                           1         2         3         4         5
   1 1   O  1S          1.04564
   2        2S         -0.10286   0.27754
   3        3S         -0.13234   0.29718   0.35997
   4        4PX         0.00000   0.00000   0.00000   0.52439
   5        4PY         0.00000   0.00000   0.00000   0.00000   0.52439
   6        4PZ        -0.02495   0.04550   0.14570   0.00000   0.00000
   7        5PX         0.00000   0.00000   0.00000   0.32731   0.00000
   8        5PY         0.00000   0.00000   0.00000   0.00000   0.32731
   9        5PZ        -0.00994   0.02107   0.06422   0.00000   0.00000
  10        6XX        -0.00276   0.00241   0.00463   0.00000   0.00000
  11        6YY        -0.00276   0.00241   0.00463   0.00000   0.00000
  12        6ZZ         0.00019  -0.00494  -0.01643   0.00000   0.00000
  13        6XY         0.00000   0.00000   0.00000   0.00000   0.00000
  14        6XZ         0.00000   0.00000   0.00000  -0.00909   0.00000
  15        6YZ         0.00000   0.00000   0.00000   0.00000  -0.00909
  16 2   O  1S         -0.00095   0.00368   0.02593   0.00000   0.00000
  17        2S          0.00368  -0.01140  -0.06385   0.00000   0.00000
  18        3S          0.02593  -0.06385  -0.09176   0.00000   0.00000
  19        4PX         0.00000   0.00000   0.00000  -0.06163   0.00000
  20        4PY         0.00000   0.00000   0.00000   0.00000  -0.06163
  21        4PZ        -0.01767   0.04992  -0.02628   0.00000   0.00000
  22        5PX         0.00000   0.00000   0.00000  -0.08382   0.00000
  23        5PY         0.00000   0.00000   0.00000   0.00000  -0.08382
  24        5PZ         0.00375  -0.00346  -0.04222   0.00000   0.00000
  25        6XX         0.00089  -0.00239  -0.00142   0.00000   0.00000
  26        6YY         0.00089  -0.00239  -0.00142   0.00000   0.00000
  27        6ZZ        -0.00540   0.01241   0.00522   0.00000   0.00000
  28        6XY         0.00000   0.00000   0.00000   0.00000   0.00000
  29        6XZ         0.00000   0.00000   0.00000   0.01457   0.00000
  30        6YZ         0.00000   0.00000   0.00000   0.00000   0.01457
                           6         7         8         9        10
   6        4PZ         0.25975
   7        5PX         0.00000   0.20827
   8        5PY         0.00000   0.00000   0.20827
   9        5PZ         0.12052   0.00000   0.00000   0.05857
  10        6XX         0.00519   0.00000   0.00000   0.00227   0.00012
  11        6YY         0.00519   0.00000   0.00000   0.00227   0.00012
  12        6ZZ        -0.02763   0.00000   0.00000  -0.01212  -0.00059
  13        6XY         0.00000   0.00000   0.00000   0.00000   0.00000
  14        6XZ         0.00000  -0.00430   0.00000   0.00000   0.00000
  15        6YZ         0.00000   0.00000  -0.00430   0.00000   0.00000
  16 2   O  1S          0.01767   0.00000   0.00000  -0.00375   0.00089
  17        2S         -0.04992   0.00000   0.00000   0.00346  -0.00239
  18        3S          0.02628   0.00000   0.00000   0.04222  -0.00142
  19        4PX         0.00000  -0.08382   0.00000   0.00000   0.00000
  20        4PY         0.00000   0.00000  -0.08382   0.00000   0.00000
  21        4PZ        -0.22818   0.00000   0.00000  -0.11470  -0.00359
  22        5PX         0.00000  -0.08016   0.00000   0.00000   0.00000
  23        5PY         0.00000   0.00000  -0.08016   0.00000   0.00000
  24        5PZ        -0.11470   0.00000   0.00000  -0.05749  -0.00198
  25        6XX         0.00359   0.00000   0.00000   0.00198   0.00004
[...]
  28        6XY         0.00000   0.00000   0.00000   0.00000   0.00000
  29        6XZ         0.00000   0.01282   0.00000   0.00000   0.00000
  30        6YZ         0.00000   0.00000   0.01282   0.00000   0.00000
                          11        12        13        14        15
  11        6YY         0.00010
  12        6ZZ        -0.00044   0.00288
  13        6XY         0.00000   0.00000   0.00000
  14        6XZ         0.00000   0.00000   0.00000   0.00161
  15        6YZ         0.00000   0.00000   0.00000   0.00000   0.00161
  16 2   O  1S          0.00116  -0.00459   0.00000   0.00000   0.00000
  17        2S         -0.00266   0.00905   0.00000   0.00000   0.00000
  18        3S         -0.00191   0.00061   0.00000   0.00000   0.00000
  19        4PX         0.00000   0.00000   0.00000  -0.01621   0.00000
  20        4PY         0.00000   0.00000   0.00000   0.00000  -0.01621
  21        4PZ        -0.00242   0.02294   0.00000   0.00000   0.00000
  22        5PX         0.00000   0.00000   0.00000  -0.01282   0.00000
  23        5PY         0.00000   0.00000   0.00000   0.00000  -0.01282
  24        5PZ        -0.00090   0.01091   0.00000   0.00000   0.00000
  25        6XX         0.00010  -0.00044   0.00000   0.00000   0.00000
  26        6YY         0.00010  -0.00044   0.00000   0.00000   0.00000
  27        6ZZ        -0.00044   0.00287   0.00000   0.00000   0.00000
  28        6XY         0.00000   0.00000   0.00000   0.00000   0.00000
  29        6XZ         0.00000   0.00000   0.00000  -0.00161   0.00000
  30        6YZ         0.00000   0.00000   0.00000   0.00000  -0.00161
                          16        17        18        19        20
  16 2   O  1S          1.04395
  17        2S         -0.09219   0.22755
  18        3S         -0.12779   0.26688   0.35352
  19        4PX         0.00000   0.00000   0.00000   0.16336
  20        4PY         0.00000   0.00000   0.00000   0.00000   0.16336
  21        4PZ         0.02791  -0.04826  -0.15651   0.00000   0.00000
  22        5PX         0.00000   0.00000   0.00000   0.12924   0.00000
  23        5PY         0.00000   0.00000   0.00000   0.00000   0.12924
  24        5PZ         0.01954  -0.03955  -0.09694   0.00000   0.00000
  25        6XX         0.00069  -0.00330  -0.00270   0.00000   0.00000
  26        6YY         0.00069  -0.00330  -0.00270   0.00000   0.00000
  27        6ZZ        -0.00303   0.00731  -0.00162   0.00000   0.00000
  28        6XY         0.00000   0.00000   0.00000   0.00000   0.00000
  29        6XZ         0.00000   0.00000   0.00000   0.01621   0.00000
  30        6YZ         0.00000   0.00000   0.00000   0.00000   0.01621
                          21        22        23        24        25
  21        4PZ         0.25831
  22        5PX         0.00000   0.10225
  23        5PY         0.00000   0.00000   0.10225
  24        5PZ         0.13417   0.00000   0.00000   0.07126
  25        6XX        -0.00214   0.00000   0.00000  -0.00075   0.00010
  26        6YY        -0.00214   0.00000   0.00000  -0.00075   0.00010
  27        6ZZ         0.02371   0.00000   0.00000   0.01133  -0.00044
  28        6XY         0.00000   0.00000   0.00000   0.00000   0.00000
  29        6XZ         0.00000   0.01282   0.00000   0.00000   0.00000
  30        6YZ         0.00000   0.00000   0.01282   0.00000   0.00000
                          26        27        28        29        30
  26        6YY         0.00010
  27        6ZZ        -0.00044   0.00288
  28        6XY         0.00000   0.00000   0.00000
  29        6XZ         0.00000   0.00000   0.00000   0.00161
  30        6YZ         0.00000   0.00000   0.00000   0.00000   0.00161
    Full Mulliken population analysis:
                           1         2         3         4         5
   1 1   O  1S          2.08958
   2        2S         -0.04392   0.50510
   3        3S         -0.04782   0.44686   0.71349
   4        4PX         0.00000   0.00000   0.00000   0.68775
   5        4PY         0.00000   0.00000   0.00000   0.00000   0.68775
   6        4PZ         0.00000   0.00000   0.00000   0.00000   0.00000
   7        5PX         0.00000   0.00000   0.00000   0.22885   0.00000
   8        5PY         0.00000   0.00000   0.00000   0.00000   0.22885
   9        5PZ         0.00000   0.00000   0.00000   0.00000   0.00000
  10        6XX        -0.00013  -0.00059   0.00128   0.00000   0.00000
  11        6YY        -0.00013  -0.00059   0.00128   0.00000   0.00000
  12        6ZZ        -0.00017   0.00156  -0.01199   0.00000   0.00000
  13        6XY         0.00000   0.00000   0.00000   0.00000   0.00000
  14        6XZ         0.00000   0.00000   0.00000   0.00000   0.00000
  15        6YZ         0.00000   0.00000   0.00000   0.00000   0.00000
  16 2   O  1S          0.00000   0.00002   0.00151   0.00000   0.00000
  17        2S          0.00002  -0.00185  -0.02377   0.00000   0.00000
  18        3S          0.00151  -0.02377  -0.05620   0.00000   0.00000
  19        4PX         0.00000   0.00000   0.00000   0.00391   0.00000
  20        4PY         0.00000   0.00000   0.00000   0.00000   0.00391
  21        4PZ        -0.00037   0.01362  -0.00947   0.00000   0.00000
  22        5PX         0.00000   0.00000   0.00000   0.00702   0.00000
  23        5PY         0.00000   0.00000   0.00000   0.00000   0.00702
  24        5PZ        -0.00012   0.00673  -0.03883   0.00000   0.00000
  25        6XX         0.00000  -0.00019  -0.00062   0.00000   0.00000
  26        6YY         0.00000  -0.00019  -0.00062   0.00000   0.00000
  27        6ZZ        -0.00021   0.00468   0.00179   0.00000   0.00000
  28        6XY         0.00000   0.00000   0.00000   0.00000   0.00000
  29        6XZ         0.00000   0.00000   0.00000   0.00304   0.00000
  30        6YZ         0.00000   0.00000   0.00000   0.00000   0.00304
                           6         7         8         9        10
   6        4PZ         0.51806
   7        5PX         0.00000   0.31052
   8        5PY         0.00000   0.00000   0.31052
   9        5PZ         0.12767   0.00000   0.00000   0.12983
  10        6XX         0.00000   0.00000   0.00000   0.00000   0.00023
  11        6YY         0.00000   0.00000   0.00000   0.00000   0.00008
  12        6ZZ         0.00000   0.00000   0.00000   0.00000  -0.00034
  13        6XY         0.00000   0.00000   0.00000   0.00000   0.00000
  14        6XZ         0.00000   0.00000   0.00000   0.00000   0.00000
  15        6YZ         0.00000   0.00000   0.00000   0.00000   0.00000
  16 2   O  1S         -0.00037   0.00000   0.00000  -0.00012   0.00000
  17        2S          0.01362   0.00000   0.00000   0.00673  -0.00019
  18        3S         -0.00947   0.00000   0.00000  -0.03883  -0.00062
  19        4PX         0.00000   0.00702   0.00000   0.00000   0.00000
  20        4PY         0.00000   0.00000   0.00702   0.00000   0.00000
  21        4PZ         0.08244   0.00000   0.00000   0.04662  -0.00037
  22        5PX         0.00000   0.01067   0.00000   0.00000   0.00000
  23        5PY         0.00000   0.00000   0.01067   0.00000   0.00000
  24        5PZ         0.04662   0.00000   0.00000   0.02532  -0.00112
  25        6XX        -0.00037   0.00000   0.00000  -0.00112   0.00001
  26        6YY        -0.00037   0.00000   0.00000  -0.00112   0.00000
  27        6ZZ         0.01336   0.00000   0.00000   0.00928  -0.00008
  28        6XY         0.00000   0.00000   0.00000   0.00000   0.00000
  29        6XZ         0.00000   0.00329   0.00000   0.00000   0.00000
  30        6YZ         0.00000   0.00000   0.00329   0.00000   0.00000
                          11        12        13        14        15
  11        6YY         0.00023
  12        6ZZ        -0.00034   0.00601
  13        6XY         0.00000   0.00000   0.00000
  14        6XZ         0.00000   0.00000   0.00000   0.00224
  15        6YZ         0.00000   0.00000   0.00000   0.00000   0.00224
  16 2   O  1S          0.00000  -0.00021   0.00000   0.00000   0.00000
  17        2S         -0.00019   0.00468   0.00000   0.00000   0.00000
  18        3S         -0.00062   0.00179   0.00000   0.00000   0.00000
  19        4PX         0.00000   0.00000   0.00000   0.00304   0.00000
  20        4PY         0.00000   0.00000   0.00000   0.00000   0.00304
  21        4PZ        -0.00037   0.01336   0.00000   0.00000   0.00000
  22        5PX         0.00000   0.00000   0.00000   0.00329   0.00000
  23        5PY         0.00000   0.00000   0.00000   0.00000   0.00329
  24        5PZ        -0.00112   0.00928   0.00000   0.00000   0.00000
  25        6XX         0.00000  -0.00008   0.00000   0.00000   0.00000
  26        6YY         0.00001  -0.00008   0.00000   0.00000   0.00000
  27        6ZZ        -0.00008   0.00214   0.00000   0.00000   0.00000
  28        6XY         0.00000   0.00000   0.00000   0.00000   0.00000
  29        6XZ         0.00000   0.00000   0.00000   0.00050   0.00000
  30        6YZ         0.00000   0.00000   0.00000   0.00000   0.00050
                          16        17        18        19        20
  16 2   O  1S          2.08958
  17        2S         -0.04392   0.50510
  18        3S         -0.04782   0.44686   0.71349
  19        4PX         0.00000   0.00000   0.00000   0.68775
  20        4PY         0.00000   0.00000   0.00000   0.00000   0.68775
  21        4PZ         0.00000   0.00000   0.00000   0.00000   0.00000
  22        5PX         0.00000   0.00000   0.00000   0.22885   0.00000
  23        5PY         0.00000   0.00000   0.00000   0.00000   0.22885
  24        5PZ         0.00000   0.00000   0.00000   0.00000   0.00000
  25        6XX        -0.00013  -0.00059   0.00128   0.00000   0.00000
  26        6YY        -0.00013  -0.00059   0.00128   0.00000   0.00000
  27        6ZZ        -0.00017   0.00156  -0.01199   0.00000   0.00000
  28        6XY         0.00000   0.00000   0.00000   0.00000   0.00000
  29        6XZ         0.00000   0.00000   0.00000   0.00000   0.00000
  30        6YZ         0.00000   0.00000   0.00000   0.00000   0.00000
                          21        22        23        24        25
  21        4PZ         0.51806
  22        5PX         0.00000   0.31052
  23        5PY         0.00000   0.00000   0.31052
  24        5PZ         0.12767   0.00000   0.00000   0.12983
  25        6XX         0.00000   0.00000   0.00000   0.00000   0.00023
  26        6YY         0.00000   0.00000   0.00000   0.00000   0.00008
  27        6ZZ         0.00000   0.00000   0.00000   0.00000  -0.00034
  28        6XY         0.00000   0.00000   0.00000   0.00000   0.00000
  29        6XZ         0.00000   0.00000   0.00000   0.00000   0.00000
  30        6YZ         0.00000   0.00000   0.00000   0.00000   0.00000
                          26        27        28        29        30
  26        6YY         0.00023
  27        6ZZ        -0.00034   0.00601
  28        6XY         0.00000   0.00000   0.00000
  29        6XZ         0.00000   0.00000   0.00000   0.00224
  30        6YZ         0.00000   0.00000   0.00000   0.00000   0.00224
     Gross orbital populations:
                         Total     Alpha     Beta      Spin
   1 1   O  1S          1.99826   0.99895   0.99931  -0.00037
   2        2S          0.90747   0.48113   0.42633   0.05480
   3        3S          0.97690   0.48227   0.49463  -0.01236
   4        4PX         0.93059   0.67457   0.25602   0.41855
   5        4PY         0.93059   0.67457   0.25602   0.41855
   6        4PZ         0.79120   0.39404   0.39715  -0.00311
   7        5PX         0.56035   0.32196   0.23839   0.08356
   8        5PY         0.56035   0.32196   0.23839   0.08356
   9        5PZ         0.30425   0.13261   0.17164  -0.03902
  10        6XX        -0.00183   0.00309  -0.00492   0.00801
  11        6YY        -0.00183   0.00309  -0.00492   0.00801
  12        6ZZ         0.02560   0.00482   0.02078  -0.01596
  13        6XY         0.00000   0.00000   0.00000   0.00000
  14        6XZ         0.00907   0.00348   0.00559  -0.00211
  15        6YZ         0.00907   0.00348   0.00559  -0.00211
  16 2   O  1S          1.99826   0.99895   0.99931  -0.00037
  17        2S          0.90747   0.48113   0.42633   0.05480
  18        3S          0.97690   0.48227   0.49463  -0.01236
  19        4PX         0.93059   0.67457   0.25602   0.41855
  20        4PY         0.93059   0.67457   0.25602   0.41855
  21        4PZ         0.79120   0.39404   0.39715  -0.00311
  22        5PX         0.56035   0.32196   0.23839   0.08356
  23        5PY         0.56035   0.32196   0.23839   0.08356
  24        5PZ         0.30425   0.13261   0.17164  -0.03902
  25        6XX        -0.00183   0.00309  -0.00492   0.00801
  26        6YY        -0.00183   0.00309  -0.00492   0.00801
  27        6ZZ         0.02560   0.00482   0.02078  -0.01596
  28        6XY         0.00000   0.00000   0.00000   0.00000
  29        6XZ         0.00907   0.00348   0.00559  -0.00211
  30        6YZ         0.00907   0.00348   0.00559  -0.00211
          Condensed to atoms (all electrons):
               1          2
     1  O    7.824393   0.175607
     2  O    0.175607   7.824393
          Atomic-Atomic Spin Densities.
               1          2
     1  O    1.402362  -0.402362
     2  O   -0.402362   1.402362
 Mulliken charges and spin densities:
               1          2
     1  O    0.000000   1.000000
     2  O    0.000000   1.000000
 Sum of Mulliken charges =   0.00000   2.00000
 Mulliken charges and spin densities with hydrogens summed into heavy atoms:
               1          2
     1  O    0.000000   1.000000
     2  O    0.000000   1.000000
 Electronic spatial extent (au):  <R**2>=             43.6155
 Charge=              0.0000 electrons
 Dipole moment (field-independent basis, Debye):
    X=              0.0000    Y=              0.0000    Z=              0.0000  Tot=              0.0000
 Quadrupole moment (field-independent basis, Debye-Ang):
   XX=             -9.8731   YY=             -9.8731   ZZ=            -10.4543
   XY=              0.0000   XZ=              0.0000   YZ=              0.0000
 Traceless Quadrupole moment (field-independent basis, Debye-Ang):
   XX=              0.1937   YY=              0.1937   ZZ=             -0.3874
   XY=              0.0000   XZ=              0.0000   YZ=              0.0000
 Octapole moment (field-independent basis, Debye-Ang**2):
  XXX=              0.0000  YYY=              0.0000  ZZZ=              0.0000  XYY=              0.0000
  XXY=              0.0000  XXZ=              0.0000  XZZ=              0.0000  YZZ=              0.0000
  YYZ=              0.0000  XYZ=              0.0000
 Hexadecapole moment (field-independent basis, Debye-Ang**3):
 XXXX=             -6.4585 YYYY=             -6.4585 ZZZZ=            -28.1255 XXXY=              0.0000
 XXXZ=              0.0000 YYYX=              0.0000 YYYZ=              0.0000 ZZZX=              0.0000
 ZZZY=              0.0000 XXYY=             -2.1528 XXZZ=             -5.9504 YYZZ=             -5.9504
 XXYZ=              0.0000 YYXZ=              0.0000 ZZXY=              0.0000
 N-N= 2.782461435104D+01 E-N=-4.105572480545D+02  KE= 1.494120171262D+02
 Orbital energies and kinetic energies (alpha):
                                 1                 2
   1         O               -20.753553         29.143378
   2         O               -20.752905         29.153557
   3         O                -1.710464          2.943830
   4         O                -1.205243          3.468494
   5         O                -0.834300          2.437013
   6         O                -0.834300          2.437013
   7         O                -0.755400          2.738839
   8         O                -0.553480          3.064101
   9         O                -0.553480          3.064101
  10         V                 0.415843          3.307186
  11         V                 1.053878          3.375981
  12         V                 1.053878          3.375981
  13         V                 1.057251          3.874704
  14         V                 1.133019          2.893257
  15         V                 1.163846          3.195582
  16         V                 1.163846          3.195582
  17         V                 1.170408          2.459138
  18         V                 1.816956          2.992652
  19         V                 2.369508          3.795212
  20         V                 2.369508          3.795212
  21         V                 2.631209          3.992602
  22         V                 2.631209          3.992602
  23         V                 2.930588          4.316492
  24         V                 2.930588          4.316492
  25         V                 3.113818          5.081060
  26         V                 3.624243          5.066113
  27         V                 3.624243          5.066113
  28         V                 4.165941          6.163009
  29         V                 5.392854         13.376654
  30         V                 5.959475         13.979327
 Orbital energies and kinetic energies (beta):
                                 1                 2
   1         O               -20.699805         29.221420
   2         O               -20.698653         29.235630
   3         O                -1.578616          2.758833
   4         O                -0.997621          3.175787
   5         O                -0.695664          2.658328
   6         O                -0.568058          1.955847
   7         O                -0.568058          1.955847
   8         V                 0.110491          2.405319
   9         V                 0.110491          2.405319
  10         V                 0.493210          3.293047
  11         V                 1.086850          4.027624
  12         V                 1.168690          2.989891
  13         V                 1.173071          2.494269
  14         V                 1.176384          3.831775
  15         V                 1.176384          3.831775
  16         V                 1.289774          3.852857
  17         V                 1.289774          3.852857
  18         V                 1.858131          3.033303
  19         V                 2.442455          3.820584
  20         V                 2.442455          3.820584
  21         V                 2.749350          3.992602
  22         V                 2.749350          3.992602
  23         V                 3.078717          4.316492
  24         V                 3.078717          4.316492
  25         V                 3.184087          5.084595
  26         V                 3.701358          5.067619
  27         V                 3.701358          5.067619
  28         V                 4.212357          6.155078
  29         V                 5.449799         13.428819
  30         V                 6.013704         14.018461
 Total kinetic energy from orbitals= 1.494120171262D+02
 Leave Link  601 at Wed Oct 28 10:12:18 2015, MaxMem=    33554432 cpu:               0.0 elap:               0.0
 (Enter /home/gauss/gdvi03p/gdv/l9999.exe)
 Unable to Open any file for archive entry.
 1\1\GINC-MEDUSA\SP\UTD-Full\CC-pVDZ\O2(3)\PLESTRAN\28-Oct-2015\0\\#p u
 hf/cc-pVDZ gfinput pop=full nosymm td(full,nstates=12) 6D\\O2 cc-pVDZ\
 \0,3\O,0,0.,0.,0.608586\O,0,0.,0.,-0.608586\\Version=ES64L-GDVRevI.03+
 \HF=-149.6278011\MP2=-149.9853573\PUHF=-149.6377035\PMP2-0=-149.991022
 4\EFC=0.\S2=2.033623\S2-1=2.004519\S2A=2.000581\RMSD=5.046e-09\PG=D*H 
 [C*(O1.O1)]\\@
 The archive entry for this job was punched.


 THE MORE ACCURATE THE CALCULATIONS BECOME, THE MORE THE CONCEPTS
 TEND TO VANISH INTO THIN AIR.
     -- R.S. MULLIKEN, J.C.P. 43,S2(1965)
 Job cpu time:       0 days  0 hours  0 minutes  1.4 seconds.
 Elapsed time:       0 days  0 hours  0 minutes  1.1 seconds.
 File lengths (MBytes):  RWF=     14 Int=      0 D2E=      0 Chk=      2 Scr=      1
 Normal termination of Gaussian DV at Wed Oct 28 10:12:18 2015.
