 Entering Gaussian System, Link 0=gdv
 Input=O2_cc-pVDZ_ROHF.com
 Output=O2_cc-pVDZ_ROHF.log
 Initial command:
 /home/gauss/gdvi01p/gdv/l1.exe "/home/GauScr/Gau-2772.inp" -scrdir="/home/GauScr/"
 Entering Link 1 = /home/gauss/gdvi01p/gdv/l1.exe PID=      2773.
  
 Copyright (c) 1988,1990,1992,1993,1995,1998,2003,2009,2014,
            Gaussian, Inc.  All Rights Reserved.
  
 This is the private, development version of
 the Gaussian(R) DV system of programs. It is based on
 the Gaussian(R) 09 system (copyright 2009, Gaussian, Inc.),
 the Gaussian(R) 03 system (copyright 2003, Gaussian, Inc.),
 the Gaussian(R) 98 system (copyright 1998, Gaussian, Inc.),
 the Gaussian(R) 94 system (copyright 1995, Gaussian, Inc.),
 the Gaussian 92(TM) system (copyright 1992, Gaussian, Inc.),
 the Gaussian 90(TM) system (copyright 1990, Gaussian, Inc.),
 the Gaussian 88(TM) system (copyright 1988, Gaussian, Inc.),
 the Gaussian 86(TM) system (copyright 1986, Carnegie Mellon
 University), and the Gaussian 82(TM) system (copyright 1983,
 Carnegie Mellon University). Gaussian is a federally registered
 trademark of Gaussian, Inc.
  
 This software contains proprietary and confidential information,
 including trade secrets, belonging to Gaussian, Inc.
  
 This software is provided under written license and may be
 used, copied, transmitted, or stored only in accord with that
 written license.
  
 The following legend is applicable only to US Government
 contracts under FAR:
  
                    RESTRICTED RIGHTS LEGEND
  
 Use, reproduction and disclosure by the US Government is
 subject to restrictions as set forth in subparagraphs (a)
 and (c) of the Commercial Computer Software - Restricted
 Rights clause in FAR 52.227-19.
  
 Gaussian, Inc.
 340 Quinnipiac St., Bldg. 40, Wallingford CT 06492
  
  
 ---------------------------------------------------------------
 Warning -- This program may not be used in any manner that
 competes with the business of Gaussian, Inc. or will provide
 assistance to any competitor of Gaussian, Inc.  The licensee
 of this program is prohibited from giving any competitor of
 Gaussian, Inc. access to this program.  By using this program,
 the user acknowledges that Gaussian, Inc. is engaged in the
 business of creating and licensing software in the field of
 computational chemistry and represents and warrants to the
 licensee that it is not a competitor of Gaussian, Inc. and that
 it will not use this program in any manner prohibited above.
 ---------------------------------------------------------------
  

 Cite this work as:
 Gaussian Development Version, Revision I.01+,
 M. J. Frisch, G. W. Trucks, H. B. Schlegel, G. E. Scuseria, 
 M. A. Robb, J. R. Cheeseman, G. Scalmani, V. Barone, B. Mennucci, 
 G. A. Petersson, H. Nakatsuji, M. Caricato, X. Li, H. P. Hratchian, 
 A. F. Izmaylov, J. Bloino, B. G. Janesko, F. Lipparini, G. Zheng, 
 J. L. Sonnenberg, W. Liang, M. Hada, M. Ehara, K. Toyota, R. Fukuda, 
 J. Hasegawa, M. Ishida, T. Nakajima, Y. Honda, O. Kitao, H. Nakai, 
 T. Vreven, J. A. Montgomery, Jr., J. E. Peralta, F. Ogliaro, 
 M. Bearpark, J. J. Heyd, E. Brothers, K. N. Kudin, V. N. Staroverov, 
 T. Keith, R. Kobayashi, J. Normand, K. Raghavachari, A. Rendell, 
 J. C. Burant, S. S. Iyengar, J. Tomasi, M. Cossi, N. Rega, 
 J. M. Millam, M. Klene, J. E. Knox, J. B. Cross, V. Bakken, 
 C. Adamo, J. Jaramillo, R. Gomperts, R. E. Stratmann, O. Yazyev, 
 A. J. Austin, R. Cammi, C. Pomelli, J. W. Ochterski, R. L. Martin, 
 K. Morokuma, V. G. Zakrzewski, G. A. Voth, P. Salvador, 
 J. J. Dannenberg, S. Dapprich, P. V. Parandekar, N. J. Mayhall, 
 A. D. Daniels, O. Farkas, J. B. Foresman, J. V. Ortiz, 
 J. Cioslowski, and D. J. Fox, Gaussian, Inc., Wallingford CT, 2010.
 
 *******************************************
 Gaussian DV:  ES64L-GDVRevI.01+ 11-Sep-2014
                 24-Sep-2015 
 *******************************************
 ------------------------------------------
 #p rohf/cc-pVDZ gfinput pop=full nosymm 6D
 ------------------------------------------
 1/38=1,172=1/1;
 2/12=2,15=1,17=6,18=5,40=1/2;
 3/5=16,8=2,11=2,24=10,25=1,30=1,116=101/1,2,3;
 4//1;
 5/5=2,38=5/2;
 6/7=3,28=1/1;
 99/5=1,9=1/99;
 Leave Link    1 at Thu Sep 24 12:06:12 2015, MaxMem=           0 cpu:               0.0 elap:               0.0
 (Enter /home/gauss/gdvi01p/gdv/l101.exe)
 ----------
 O2 cc-pVDZ
 ----------
 Symbolic Z-matrix:
 Charge =  0 Multiplicity = 3
 O                     0.        0.        0.60859 
 O                     0.        0.       -0.60859 
 
 ITRead=  0  0
 MicOpt= -1 -1
 NAtoms=      2 NQM=        2 NQMF=       0 NMMI=      0 NMMIF=      0
                NMic=       0 NMicF=      0.
                    Isotopes and Nuclear Properties:
 (Nuclear quadrupole moments (NQMom) in fm**2, nuclear magnetic moments (NMagM)
  in nuclear magnetons)

  Atom         1           2
 IAtWgt=          16          16
 AtmWgt=  15.9949146  15.9949146
 NucSpn=           0           0
 AtZEff=   0.0000000   0.0000000
 NQMom=    0.0000000   0.0000000
 NMagM=    0.0000000   0.0000000
 AtZNuc=   8.0000000   8.0000000
 Leave Link  101 at Thu Sep 24 12:06:13 2015, MaxMem=    33554432 cpu:               0.1 elap:               0.1
 (Enter /home/gauss/gdvi01p/gdv/l202.exe)
                          Input orientation:                          
 ---------------------------------------------------------------------
 Center     Atomic      Atomic             Coordinates (Angstroms)
 Number     Number       Type             X           Y           Z
 ---------------------------------------------------------------------
      1          8           0        0.000000    0.000000    0.608586
      2          8           0        0.000000    0.000000   -0.608586
 ---------------------------------------------------------------------
 Symmetry turned off by external request.
 Stoichiometry    O2(3)
 Framework group  D*H[C*(O.O)]
 Deg. of freedom     1
 Full point group                 D*H     NOp   8
 Rotational constants (GHZ):      0.0000000     42.6541569     42.6541569
 Leave Link  202 at Thu Sep 24 12:06:13 2015, MaxMem=    33554432 cpu:               0.0 elap:               0.0
 (Enter /home/gauss/gdvi01p/gdv/l301.exe)
 Standard basis: CC-pVDZ (6D, 7F)
 Ernie: Thresh=  0.10000D-02 Tol=  0.10000D-05 Strict=F.
 Ernie:  4 primitive shells out of 44 were deleted.
 AO basis set in the form of general basis input (Overlap normalization):
      1 0
 S   7 1.00       0.000000000000
      0.1172000000D+05  0.7118644339D-03
      0.1759000000D+04  0.5485201992D-02
      0.4008000000D+03  0.2790992963D-01
      0.1137000000D+03  0.1051332075D+00
      0.3703000000D+02  0.2840024898D+00
      0.1327000000D+02  0.4516739459D+00
      0.5025000000D+01  0.2732081255D+00
 S   7 1.00       0.000000000000
      0.1172000000D+05  0.7690300460D-05
      0.4008000000D+03  0.3134845790D-03
      0.1137000000D+03 -0.2966148530D-02
      0.3703000000D+02 -0.1087535430D-01
      0.1327000000D+02 -0.1207538168D+00
      0.5025000000D+01 -0.1062752639D+00
      0.1013000000D+01  0.1095975478D+01
 S   1 1.00       0.000000000000
      0.3023000000D+00  0.1000000000D+01
 P   3 1.00       0.000000000000
      0.1770000000D+02  0.6267916628D-01
      0.3854000000D+01  0.3335365659D+00
      0.1046000000D+01  0.7412396416D+00
 P   1 1.00       0.000000000000
      0.2753000000D+00  0.1000000000D+01
 D   1 1.00       0.000000000000
      0.1185000000D+01  0.1000000000D+01
 ****
      2 0
 S   7 1.00       0.000000000000
      0.1172000000D+05  0.7118644339D-03
      0.1759000000D+04  0.5485201992D-02
      0.4008000000D+03  0.2790992963D-01
      0.1137000000D+03  0.1051332075D+00
      0.3703000000D+02  0.2840024898D+00
      0.1327000000D+02  0.4516739459D+00
      0.5025000000D+01  0.2732081255D+00
 S   7 1.00       0.000000000000
      0.1172000000D+05  0.7690300460D-05
      0.4008000000D+03  0.3134845790D-03
      0.1137000000D+03 -0.2966148530D-02
      0.3703000000D+02 -0.1087535430D-01
      0.1327000000D+02 -0.1207538168D+00
      0.5025000000D+01 -0.1062752639D+00
      0.1013000000D+01  0.1095975478D+01
 S   1 1.00       0.000000000000
      0.3023000000D+00  0.1000000000D+01
 P   3 1.00       0.000000000000
      0.1770000000D+02  0.6267916628D-01
      0.3854000000D+01  0.3335365659D+00
      0.1046000000D+01  0.7412396416D+00
 P   1 1.00       0.000000000000
      0.2753000000D+00  0.1000000000D+01
 D   1 1.00       0.000000000000
      0.1185000000D+01  0.1000000000D+01
 ****

    30 basis functions,    66 primitive gaussians,    30 cartesian basis functions
     9 alpha electrons        7 beta electrons
       nuclear repulsion energy        27.8246143510 Hartrees.
 IExCor=    0 DFT=F Ex=HF Corr=None ExCW=0 ScaHFX=  1.000000
 ScaDFX=  1.000000  1.000000  1.000000  1.000000 ScalE2=  1.000000  1.000000
 IRadAn=      0 IRanWt=     -1 IRanGd=            0 ICorTp=0 IEmpDi=  4
 NAtoms=    2 NActive=    2 NUniq=    2 SFac= 1.00D+00 NAtFMM=   60 NAOKFM=F Big=F
 Integral buffers will be    131072 words long.
 Raffenetti 2 integral format.
 Two-electron integral symmetry is turned off.
 Leave Link  301 at Thu Sep 24 12:06:13 2015, MaxMem=    33554432 cpu:               0.1 elap:               0.1
 (Enter /home/gauss/gdvi01p/gdv/l302.exe)
 NPDir=0 NMtPBC=     1 NCelOv=     1 NCel=       1 NClECP=     1 NCelD=      1
         NCelK=      1 NCelE2=     1 NClLst=     1 CellRange=     0.0.
 One-electron integrals computed using PRISM.
 One-electron integral symmetry used in STVInt
 NBasis=    30 RedAO= T EigKep=  1.51D-02  NBF=    30
 NBsUse=    30 1.00D-06 EigRej= -1.00D+00 NBFU=    30
 Leave Link  302 at Thu Sep 24 12:06:13 2015, MaxMem=    33554432 cpu:               0.1 elap:               0.1
 (Enter /home/gauss/gdvi01p/gdv/l303.exe)
 DipDrv:  MaxL=1.
 Leave Link  303 at Thu Sep 24 12:06:13 2015, MaxMem=    33554432 cpu:               0.0 elap:               0.0
 (Enter /home/gauss/gdvi01p/gdv/l401.exe)
 ExpMin= 2.75D-01 ExpMax= 1.17D+04 ExpMxC= 4.01D+02 IAcc=1 IRadAn=         1 AccDes= 0.00D+00
 Harris functional with IExCor=  205 and IRadAn=       1 diagonalized for initial guess.
 HarFok:  IExCor=  205 AccDes= 0.00D+00 IRadAn=         1 IDoV= 1 UseB2=F ITyADJ=14
 ICtDFT=  3500011 ScaDFX=  1.000000  1.000000  1.000000  1.000000
 FoFCou: FMM=F IPFlag=           0 FMFlag=      100000 FMFlg1=           0
         NFxFlg=           0 DoJE=T BraDBF=F KetDBF=T FulRan=T
         wScrn=  0.000000 ICntrl=       500 IOpCl=  0 I1Cent=   200000004 NGrid=           0
         NMat0=    1 NMatS0=      1 NMatT0=    0 NMatD0=    1 NMtDS0=    0 NMtDT0=    0
 Symmetry not used in FoFCou.
 Harris En= -149.558887332853    
 JPrj=0 DoOrth=F DoCkMO=F.
 Leave Link  401 at Thu Sep 24 12:06:13 2015, MaxMem=    33554432 cpu:               0.1 elap:               0.1
 (Enter /home/gauss/gdvi01p/gdv/l502.exe)
 Keep R1 and R2 ints in memory in canonical form, NReq=1052271.
 FoFCou: FMM=F IPFlag=           0 FMFlag=           0 FMFlg1=           0
         NFxFlg=           0 DoJE=F BraDBF=F KetDBF=F FulRan=T
         wScrn=  0.000000 ICntrl=       600 IOpCl=  0 I1Cent=           0 NGrid=           0
         NMat0=    1 NMatS0=    465 NMatT0=    0 NMatD0=    1 NMtDS0=    0 NMtDT0=    0
 Symmetry not used in FoFCou.
 Two-electron integral symmetry not used.
 Restricted open shell SCF:
 Using DIIS extrapolation, IDIIS=  1040.
 NGot=    33554432 LenX=    33335390 LenY=    33334049
 Requested convergence on RMS density matrix=1.00D-08 within 128 cycles.
 Requested convergence on MAX density matrix=1.00D-06.
 Requested convergence on             energy=1.00D-06.
 No special actions if energy rises.

 Cycle   1  Pass 1  IDiag  1:
 E= -149.588806123023    
 DIIS: error= 8.63D-02 at cycle   1 NSaved=   1.
 NSaved= 1 IEnMin= 1 EnMin= -149.588806123023     IErMin= 1 ErrMin= 8.63D-02
 ErrMax= 8.63D-02  0.00D+00 EMaxC= 1.00D-01 BMatC= 1.14D-01 BMatP= 1.14D-01
 IDIUse=3 WtCom= 1.37D-01 WtEn= 8.63D-01
 Coeff-Com:  0.100D+01
 Coeff-En:   0.100D+01
 Coeff:      0.100D+01
 Gap=     0.591 Goal=   None    Shift=    0.000
 GapD=    0.591 DampG=2.000 DampE=0.500 DampFc=1.0000 IDamp=-1.
 RMSDP=2.89D-03 MaxDP=1.99D-02              OVMax= 1.99D-02

 Cycle   2  Pass 1  IDiag  1:
 E= -149.607616861253     Delta-E=       -0.018810738230 Rises=F Damp=F
 DIIS: error= 4.34D-03 at cycle   2 NSaved=   2.
 NSaved= 2 IEnMin= 2 EnMin= -149.607616861253     IErMin= 2 ErrMin= 4.34D-03
 ErrMax= 4.34D-03  0.00D+00 EMaxC= 1.00D-01 BMatC= 6.50D-04 BMatP= 1.14D-01
 IDIUse=3 WtCom= 9.57D-01 WtEn= 4.34D-02
 Coeff-Com: -0.294D-01 0.103D+01
 Coeff-En:   0.000D+00 0.100D+01
 Coeff:     -0.281D-01 0.103D+01
 Gap=     0.583 Goal=   None    Shift=    0.000
 RMSDP=5.18D-04 MaxDP=6.35D-03 DE=-1.88D-02 OVMax= 4.05D-03

 Cycle   3  Pass 1  IDiag  1:
 E= -149.607890775223     Delta-E=       -0.000273913969 Rises=F Damp=F
 DIIS: error= 8.14D-04 at cycle   3 NSaved=   3.
 NSaved= 3 IEnMin= 3 EnMin= -149.607890775223     IErMin= 3 ErrMin= 8.14D-04
 ErrMax= 8.14D-04  0.00D+00 EMaxC= 1.00D-01 BMatC= 2.54D-05 BMatP= 6.50D-04
 IDIUse=3 WtCom= 9.92D-01 WtEn= 8.14D-03
 Coeff-Com: -0.927D-02 0.106D+00 0.903D+00
 Coeff-En:   0.000D+00 0.000D+00 0.100D+01
 Coeff:     -0.920D-02 0.106D+00 0.904D+00
 Gap=     0.582 Goal=   None    Shift=    0.000
 RMSDP=1.14D-04 MaxDP=1.06D-03 DE=-2.74D-04 OVMax= 9.17D-04

 Cycle   4  Pass 1  IDiag  1:
 E= -149.607903549994     Delta-E=       -0.000012774772 Rises=F Damp=F
 DIIS: error= 1.98D-04 at cycle   4 NSaved=   4.
 NSaved= 4 IEnMin= 4 EnMin= -149.607903549994     IErMin= 4 ErrMin= 1.98D-04
 ErrMax= 1.98D-04  0.00D+00 EMaxC= 1.00D-01 BMatC= 9.57D-07 BMatP= 2.54D-05
 IDIUse=3 WtCom= 9.98D-01 WtEn= 1.98D-03
 Coeff-Com: -0.561D-04-0.737D-02 0.783D-01 0.929D+00
 Coeff-En:   0.000D+00 0.000D+00 0.000D+00 0.100D+01
 Coeff:     -0.560D-04-0.736D-02 0.782D-01 0.929D+00
 Gap=     0.582 Goal=   None    Shift=    0.000
 RMSDP=2.87D-05 MaxDP=3.06D-04 DE=-1.28D-05 OVMax= 2.58D-04

 Cycle   5  Pass 1  IDiag  1:
 E= -149.607904282419     Delta-E=       -0.000000732425 Rises=F Damp=F
 DIIS: error= 4.45D-05 at cycle   5 NSaved=   5.
 NSaved= 5 IEnMin= 5 EnMin= -149.607904282419     IErMin= 5 ErrMin= 4.45D-05
 ErrMax= 4.45D-05  0.00D+00 EMaxC= 1.00D-01 BMatC= 6.65D-08 BMatP= 9.57D-07
 IDIUse=1 WtCom= 1.00D+00 WtEn= 0.00D+00
 Coeff-Com:  0.387D-03-0.702D-02-0.510D-01 0.863D-01 0.971D+00
 Coeff:      0.387D-03-0.702D-02-0.510D-01 0.863D-01 0.971D+00
 Gap=     0.582 Goal=   None    Shift=    0.000
 RMSDP=7.97D-06 MaxDP=8.03D-05 DE=-7.32D-07 OVMax= 6.37D-05

 Cycle   6  Pass 1  IDiag  1:
 E= -149.607904327165     Delta-E=       -0.000000044746 Rises=F Damp=F
 DIIS: error= 2.67D-06 at cycle   6 NSaved=   6.
 NSaved= 6 IEnMin= 6 EnMin= -149.607904327165     IErMin= 6 ErrMin= 2.67D-06
 ErrMax= 2.67D-06  0.00D+00 EMaxC= 1.00D-01 BMatC= 1.63D-10 BMatP= 6.65D-08
 IDIUse=1 WtCom= 1.00D+00 WtEn= 0.00D+00
 Coeff-Com: -0.750D-04 0.144D-02 0.100D-01-0.228D-01-0.195D+00 0.121D+01
 Coeff:     -0.750D-04 0.144D-02 0.100D-01-0.228D-01-0.195D+00 0.121D+01
 Gap=     0.582 Goal=   None    Shift=    0.000
 RMSDP=6.65D-07 MaxDP=5.90D-06 DE=-4.47D-08 OVMax= 4.89D-06

 Cycle   7  Pass 1  IDiag  1:
 E= -149.607904327356     Delta-E=       -0.000000000191 Rises=F Damp=F
 DIIS: error= 9.70D-08 at cycle   7 NSaved=   7.
 NSaved= 7 IEnMin= 7 EnMin= -149.607904327356     IErMin= 7 ErrMin= 9.70D-08
 ErrMax= 9.70D-08  0.00D+00 EMaxC= 1.00D-01 BMatC= 3.98D-13 BMatP= 1.63D-10
 IDIUse=1 WtCom= 1.00D+00 WtEn= 0.00D+00
 Coeff-Com:  0.621D-05-0.125D-03-0.737D-03 0.186D-02 0.149D-01-0.118D+00
 Coeff-Com:  0.110D+01
 Coeff:      0.621D-05-0.125D-03-0.737D-03 0.186D-02 0.149D-01-0.118D+00
 Coeff:      0.110D+01
 Gap=     0.582 Goal=   None    Shift=    0.000
 RMSDP=2.43D-08 MaxDP=2.07D-07 DE=-1.91D-10 OVMax= 2.44D-07

 Cycle   8  Pass 1  IDiag  1:
 E= -149.607904327356     Delta-E=        0.000000000000 Rises=F Damp=F
 DIIS: error= 1.62D-08 at cycle   8 NSaved=   8.
 NSaved= 8 IEnMin= 8 EnMin= -149.607904327356     IErMin= 8 ErrMin= 1.62D-08
 ErrMax= 1.62D-08  0.00D+00 EMaxC= 1.00D-01 BMatC= 5.37D-15 BMatP= 3.98D-13
 IDIUse=1 WtCom= 1.00D+00 WtEn= 0.00D+00
 Coeff-Com: -0.118D-05 0.238D-04 0.143D-03-0.356D-03-0.288D-02 0.244D-01
 Coeff-Com: -0.288D+00 0.127D+01
 Coeff:     -0.118D-05 0.238D-04 0.143D-03-0.356D-03-0.288D-02 0.244D-01
 Coeff:     -0.288D+00 0.127D+01
 Gap=     0.582 Goal=   None    Shift=    0.000
 RMSDP=2.78D-09 MaxDP=2.28D-08 DE=-4.83D-13 OVMax= 3.66D-08

 SCF Done:  E(ROHF) =  -149.607904327     A.U. after    8 cycles
            NFock=  8  Conv=0.28D-08     -V/T= 2.0017
 <Sx>= 0.0000 <Sy>= 0.0000 <Sz>= 1.0000 <S**2>= 2.0000 S= 1.0000
 <L.S>= 0.000000000000E+00
 KE= 1.493522271318D+02 PE=-4.104901711179D+02 EE= 8.370542530774D+01
 Annihilation of the first spin contaminant:
 S**2 before annihilation     2.0000,   after     2.0000
 Leave Link  502 at Thu Sep 24 12:06:13 2015, MaxMem=    33554432 cpu:               0.1 elap:               0.1
 (Enter /home/gauss/gdvi01p/gdv/l601.exe)
 Copying SCF densities to generalized density rwf, IOpCl= 0 IROHF=1.

 **********************************************************************

            Population analysis using the SCF density.

 **********************************************************************

 Alpha  occ. eigenvalues --  -20.72433 -20.72330  -1.62676  -1.07116  -0.71606
 Alpha  occ. eigenvalues --   -0.65864  -0.65864  -0.14114  -0.14114
 Alpha virt. eigenvalues --    0.44112   1.06586   1.09395   1.09395   1.14514
 Alpha virt. eigenvalues --    1.16772   1.20076   1.20076   1.82988   2.39169
 Alpha virt. eigenvalues --    2.39169   2.67125   2.67125   2.98118   2.98118
 Alpha virt. eigenvalues --    3.13656   3.64986   3.64986   4.18052   5.41202
 Alpha virt. eigenvalues --    5.97746
     Molecular Orbital Coefficients:
                           1         2         3         4         5
                           O         O         O         O         O
     Eigenvalues --   -20.72433 -20.72330  -1.62676  -1.07116  -0.71606
   1 1   O  1S          0.70487   0.70501  -0.14909  -0.15972  -0.05745
   2        2S          0.01122   0.01090   0.33015   0.36381   0.10752
   3        3S         -0.00063  -0.00232   0.26063   0.46107   0.27982
   4        4PX         0.00000   0.00000   0.00000   0.00000   0.00000
   5        4PY         0.00000   0.00000   0.00000   0.00000   0.00000
   6        4PZ        -0.00121  -0.00117  -0.15993   0.13811   0.46316
   7        5PX         0.00000   0.00000   0.00000   0.00000   0.00000
   8        5PY         0.00000   0.00000   0.00000   0.00000   0.00000
   9        5PZ         0.00048   0.00096  -0.04399   0.04984   0.24270
  10        6XX        -0.00092  -0.00081  -0.00629   0.00267   0.00505
  11        6YY        -0.00092  -0.00081  -0.00629   0.00267   0.00505
  12        6ZZ        -0.00115  -0.00037   0.03181  -0.01283  -0.04102
  13        6XY         0.00000   0.00000   0.00000   0.00000   0.00000
  14        6XZ         0.00000   0.00000   0.00000   0.00000   0.00000
  15        6YZ         0.00000   0.00000   0.00000   0.00000   0.00000
  16 2   O  1S          0.70487  -0.70501  -0.14909   0.15972  -0.05745
  17        2S          0.01122  -0.01090   0.33015  -0.36381   0.10752
  18        3S         -0.00063   0.00232   0.26063  -0.46107   0.27982
  19        4PX         0.00000   0.00000   0.00000   0.00000   0.00000
  20        4PY         0.00000   0.00000   0.00000   0.00000   0.00000
  21        4PZ         0.00121  -0.00117   0.15993   0.13811  -0.46316
  22        5PX         0.00000   0.00000   0.00000   0.00000   0.00000
  23        5PY         0.00000   0.00000   0.00000   0.00000   0.00000
  24        5PZ        -0.00048   0.00096   0.04399   0.04984  -0.24270
  25        6XX        -0.00092   0.00081  -0.00629  -0.00267   0.00505
  26        6YY        -0.00092   0.00081  -0.00629  -0.00267   0.00505
  27        6ZZ        -0.00115   0.00037   0.03181   0.01283  -0.04102
  28        6XY         0.00000   0.00000   0.00000   0.00000   0.00000
  29        6XZ         0.00000   0.00000   0.00000   0.00000   0.00000
  30        6YZ         0.00000   0.00000   0.00000   0.00000   0.00000
                           6         7         8         9        10
                           O         O         O         O         V
     Eigenvalues --    -0.65864  -0.65864  -0.14114  -0.14114   0.44112
   1 1   O  1S          0.00000   0.00000   0.00000   0.00000  -0.09867
   2        2S          0.00000   0.00000   0.00000   0.00000   0.18702
   3        3S          0.00000   0.00000   0.00000   0.00000   1.19489
   4        4PX         0.26694   0.35638   0.28129   0.45288   0.00000
   5        4PY         0.35638  -0.26694   0.45288  -0.28129   0.00000
   6        4PZ         0.00000   0.00000   0.00000   0.00000  -0.41941
   7        5PX         0.17092   0.22819   0.20765   0.33432   0.00000
   8        5PY         0.22819  -0.17092   0.33432  -0.20765   0.00000
   9        5PZ         0.00000   0.00000   0.00000   0.00000  -1.16246
  10        6XX         0.00000   0.00000   0.00000   0.00000   0.00322
  11        6YY         0.00000   0.00000   0.00000   0.00000   0.00322
  12        6ZZ         0.00000   0.00000   0.00000   0.00000  -0.02210
  13        6XY         0.00000   0.00000   0.00000   0.00000   0.00000
  14        6XZ        -0.01944  -0.02595   0.00260   0.00418   0.00000
  15        6YZ        -0.02595   0.01944   0.00418  -0.00260   0.00000
  16 2   O  1S          0.00000   0.00000   0.00000   0.00000   0.09867
  17        2S          0.00000   0.00000   0.00000   0.00000  -0.18702
  18        3S          0.00000   0.00000   0.00000   0.00000  -1.19489
  19        4PX         0.26694   0.35638  -0.28129  -0.45288   0.00000
  20        4PY         0.35638  -0.26694  -0.45288   0.28129   0.00000
  21        4PZ         0.00000   0.00000   0.00000   0.00000  -0.41941
  22        5PX         0.17092   0.22819  -0.20765  -0.33432   0.00000
  23        5PY         0.22819  -0.17092  -0.33432   0.20765   0.00000
  24        5PZ         0.00000   0.00000   0.00000   0.00000  -1.16246
  25        6XX         0.00000   0.00000   0.00000   0.00000  -0.00322
  26        6YY         0.00000   0.00000   0.00000   0.00000  -0.00322
  27        6ZZ         0.00000   0.00000   0.00000   0.00000   0.02210
  28        6XY         0.00000   0.00000   0.00000   0.00000   0.00000
  29        6XZ         0.01944   0.02595   0.00260   0.00418   0.00000
  30        6YZ         0.02595  -0.01944   0.00418  -0.00260   0.00000
                          11        12        13        14        15
                           V         V         V         V         V
     Eigenvalues --     1.06586   1.09395   1.09395   1.14514   1.16772
   1 1   O  1S          0.01088   0.00000   0.00000   0.00894  -0.02470
   2        2S         -0.05429   0.00000   0.00000  -0.63476  -0.59941
   3        3S         -0.77078   0.00000   0.00000   0.96461   0.62755
   4        4PX         0.00000   0.48090  -0.48084   0.00000   0.00000
   5        4PY         0.00000   0.48084   0.48090   0.00000   0.00000
   6        4PZ        -0.68775   0.00000   0.00000  -0.43656   0.39943
   7        5PX         0.00000  -0.44094   0.44088   0.00000   0.00000
   8        5PY         0.00000  -0.44088  -0.44094   0.00000   0.00000
   9        5PZ         1.25956   0.00000   0.00000   0.55021  -0.60643
  10        6XX         0.00493   0.00000   0.00000  -0.14024  -0.06989
  11        6YY         0.00493   0.00000   0.00000  -0.14024  -0.06989
  12        6ZZ        -0.13292   0.00000   0.00000  -0.11109  -0.27773
  13        6XY         0.00000   0.00000   0.00000   0.00000   0.00000
  14        6XZ         0.00000  -0.02786   0.02786   0.00000   0.00000
  15        6YZ         0.00000  -0.02786  -0.02786   0.00000   0.00000
  16 2   O  1S         -0.01088   0.00000   0.00000   0.00894  -0.02470
  17        2S          0.05429   0.00000   0.00000  -0.63476  -0.59941
  18        3S          0.77078   0.00000   0.00000   0.96461   0.62755
  19        4PX         0.00000   0.48090  -0.48084   0.00000   0.00000
  20        4PY         0.00000   0.48084   0.48090   0.00000   0.00000
  21        4PZ        -0.68775   0.00000   0.00000   0.43656  -0.39943
  22        5PX         0.00000  -0.44094   0.44088   0.00000   0.00000
  23        5PY         0.00000  -0.44088  -0.44094   0.00000   0.00000
  24        5PZ         1.25956   0.00000   0.00000  -0.55021   0.60643
  25        6XX        -0.00493   0.00000   0.00000  -0.14024  -0.06989
  26        6YY        -0.00493   0.00000   0.00000  -0.14024  -0.06989
  27        6ZZ         0.13292   0.00000   0.00000  -0.11109  -0.27773
  28        6XY         0.00000   0.00000   0.00000   0.00000   0.00000
  29        6XZ         0.00000   0.02786  -0.02786   0.00000   0.00000
  30        6YZ         0.00000   0.02786   0.02786   0.00000   0.00000
                          16        17        18        19        20
                           V         V         V         V         V
     Eigenvalues --     1.20076   1.20076   1.82988   2.39169   2.39169
   1 1   O  1S          0.00000   0.00000  -0.06498   0.00000   0.00000
   2        2S          0.00000   0.00000  -1.21571   0.00000   0.00000
   3        3S          0.00000   0.00000   3.71208   0.00000   0.00000
   4        4PX         0.44414  -0.45175   0.00000   0.08823   0.01636
   5        4PY        -0.45175  -0.44414   0.00000  -0.01636   0.08823
   6        4PZ         0.00000   0.00000   0.09553   0.00000   0.00000
   7        5PX        -0.73902   0.75167   0.00000   0.03242   0.00601
   8        5PY         0.75167   0.73902   0.00000  -0.00601   0.03242
   9        5PZ         0.00000   0.00000  -1.71128   0.00000   0.00000
  10        6XX         0.00000   0.00000  -0.18905   0.00000   0.00000
  11        6YY         0.00000   0.00000  -0.18905   0.00000   0.00000
  12        6ZZ         0.00000   0.00000  -0.21165   0.00000   0.00000
  13        6XY         0.00000   0.00000   0.00000   0.00000   0.00000
  14        6XZ        -0.00760   0.00773   0.00000   0.62965   0.11672
  15        6YZ         0.00773   0.00760   0.00000  -0.11672   0.62965
  16 2   O  1S          0.00000   0.00000   0.06498   0.00000   0.00000
  17        2S          0.00000   0.00000   1.21571   0.00000   0.00000
  18        3S          0.00000   0.00000  -3.71208   0.00000   0.00000
  19        4PX        -0.44414   0.45175   0.00000   0.08823   0.01636
  20        4PY         0.45175   0.44414   0.00000  -0.01636   0.08823
  21        4PZ         0.00000   0.00000   0.09553   0.00000   0.00000
  22        5PX         0.73902  -0.75167   0.00000   0.03242   0.00601
  23        5PY        -0.75167  -0.73902   0.00000  -0.00601   0.03242
  24        5PZ         0.00000   0.00000  -1.71128   0.00000   0.00000
  25        6XX         0.00000   0.00000   0.18905   0.00000   0.00000
  26        6YY         0.00000   0.00000   0.18905   0.00000   0.00000
  27        6ZZ         0.00000   0.00000   0.21165   0.00000   0.00000
  28        6XY         0.00000   0.00000   0.00000   0.00000   0.00000
  29        6XZ        -0.00760   0.00773   0.00000  -0.62965  -0.11672
  30        6YZ         0.00773   0.00760   0.00000   0.11672  -0.62965
                          21        22        23        24        25
                           V         V         V         V         V
     Eigenvalues --     2.67125   2.67125   2.98118   2.98118   3.13656
   1 1   O  1S          0.00000   0.00000   0.00000   0.00000   0.00269
   2        2S          0.00000   0.00000   0.00000   0.00000  -0.34861
   3        3S          0.00000   0.00000   0.00000   0.00000   0.21518
   4        4PX         0.00000   0.00000   0.00000   0.00000   0.00000
   5        4PY         0.00000   0.00000   0.00000   0.00000   0.00000
   6        4PZ         0.00000   0.00000   0.00000   0.00000   0.34777
   7        5PX         0.00000   0.00000   0.00000   0.00000   0.00000
   8        5PY         0.00000   0.00000   0.00000   0.00000   0.00000
   9        5PZ         0.00000   0.00000   0.00000   0.00000  -0.29862
  10        6XX         0.00114   0.59947  -0.02441   0.62567  -0.36879
  11        6YY        -0.00114  -0.59947   0.02441  -0.62567  -0.36879
  12        6ZZ         0.00000   0.00000   0.00000   0.00000   0.60474
  13        6XY         0.69221  -0.00132   0.72246   0.02818   0.00000
  14        6XZ         0.00000   0.00000   0.00000   0.00000   0.00000
  15        6YZ         0.00000   0.00000   0.00000   0.00000   0.00000
  16 2   O  1S          0.00000   0.00000   0.00000   0.00000   0.00269
  17        2S          0.00000   0.00000   0.00000   0.00000  -0.34861
  18        3S          0.00000   0.00000   0.00000   0.00000   0.21518
  19        4PX         0.00000   0.00000   0.00000   0.00000   0.00000
  20        4PY         0.00000   0.00000   0.00000   0.00000   0.00000
  21        4PZ         0.00000   0.00000   0.00000   0.00000  -0.34777
  22        5PX         0.00000   0.00000   0.00000   0.00000   0.00000
  23        5PY         0.00000   0.00000   0.00000   0.00000   0.00000
  24        5PZ         0.00000   0.00000   0.00000   0.00000   0.29862
  25        6XX         0.00114   0.59947   0.02441  -0.62567  -0.36879
  26        6YY        -0.00114  -0.59947  -0.02441   0.62567  -0.36879
  27        6ZZ         0.00000   0.00000   0.00000   0.00000   0.60474
  28        6XY         0.69221  -0.00132  -0.72246  -0.02818   0.00000
  29        6XZ         0.00000   0.00000   0.00000   0.00000   0.00000
  30        6YZ         0.00000   0.00000   0.00000   0.00000   0.00000
                          26        27        28        29        30
                           V         V         V         V         V
     Eigenvalues --     3.64986   3.64986   4.18052   5.41202   5.97746
   1 1   O  1S          0.00000   0.00000  -0.08760  -0.28581  -0.31236
   2        2S          0.00000   0.00000  -0.30172   1.25218   1.09817
   3        3S          0.00000   0.00000   2.12782   0.82219   2.07447
   4        4PX        -0.00311   0.01185   0.00000   0.00000   0.00000
   5        4PY         0.01185   0.00311   0.00000   0.00000   0.00000
   6        4PZ         0.00000   0.00000  -0.32716  -0.01499   0.16217
   7        5PX         0.06918  -0.26389   0.00000   0.00000   0.00000
   8        5PY        -0.26389  -0.06918   0.00000   0.00000   0.00000
   9        5PZ         0.00000   0.00000  -1.23037  -0.05166  -0.57323
  10        6XX         0.00000   0.00000  -0.56336  -0.99571  -1.03793
  11        6YY         0.00000   0.00000  -0.56336  -0.99571  -1.03793
  12        6ZZ         0.00000   0.00000   0.97411  -0.82696  -1.21571
  13        6XY         0.00000   0.00000   0.00000   0.00000   0.00000
  14        6XZ        -0.21084   0.80424   0.00000   0.00000   0.00000
  15        6YZ         0.80424   0.21084   0.00000   0.00000   0.00000
  16 2   O  1S          0.00000   0.00000   0.08760  -0.28581   0.31236
  17        2S          0.00000   0.00000   0.30172   1.25218  -1.09817
  18        3S          0.00000   0.00000  -2.12782   0.82219  -2.07447
  19        4PX         0.00311  -0.01185   0.00000   0.00000   0.00000
  20        4PY        -0.01185  -0.00311   0.00000   0.00000   0.00000
  21        4PZ         0.00000   0.00000  -0.32716   0.01499   0.16217
  22        5PX        -0.06918   0.26389   0.00000   0.00000   0.00000
  23        5PY         0.26389   0.06918   0.00000   0.00000   0.00000
  24        5PZ         0.00000   0.00000  -1.23037   0.05166  -0.57323
  25        6XX         0.00000   0.00000   0.56336  -0.99571   1.03793
  26        6YY         0.00000   0.00000   0.56336  -0.99571   1.03793
  27        6ZZ         0.00000   0.00000  -0.97411  -0.82696   1.21571
  28        6XY         0.00000   0.00000   0.00000   0.00000   0.00000
  29        6XZ        -0.21084   0.80424   0.00000   0.00000   0.00000
  30        6YZ         0.80424   0.21084   0.00000   0.00000   0.00000
     Alpha Density Matrix:
                           1         2         3         4         5
   1 1   O  1S          1.04492
   2        2S         -0.09791   0.25317
   3        3S         -0.13066   0.28384   0.35882
   4        4PX         0.00000   0.00000   0.00000   0.48249
   5        4PY         0.00000   0.00000   0.00000   0.00000   0.48249
   6        4PZ        -0.02650   0.04722   0.15160   0.00000   0.00000
   7        5PX         0.00000   0.00000   0.00000   0.33677   0.00000
   8        5PY         0.00000   0.00000   0.00000   0.00000   0.33677
   9        5PZ        -0.01433   0.02972   0.07942   0.00000   0.00000
  10        6XX        -0.00100  -0.00058   0.00100   0.00000   0.00000
  11        6YY        -0.00100  -0.00058   0.00100   0.00000   0.00000
  12        6ZZ        -0.00141   0.00141  -0.00910   0.00000   0.00000
  13        6XY         0.00000   0.00000   0.00000   0.00000   0.00000
  14        6XZ         0.00000   0.00000   0.00000  -0.01181   0.00000
  15        6YZ         0.00000   0.00000   0.00000   0.00000  -0.01181
  16 2   O  1S         -0.00018   0.00293   0.01990   0.00000   0.00000
  17        2S          0.00293  -0.01179  -0.05159   0.00000   0.00000
  18        3S          0.01990  -0.05159  -0.06636   0.00000   0.00000
  19        4PX         0.00000   0.00000   0.00000  -0.08595   0.00000
  20        4PY         0.00000   0.00000   0.00000   0.00000  -0.08595
  21        4PZ        -0.01927   0.05325  -0.02424   0.00000   0.00000
  22        5PX         0.00000   0.00000   0.00000  -0.08287   0.00000
  23        5PY         0.00000   0.00000   0.00000   0.00000  -0.08287
  24        5PZ        -0.00024   0.00657  -0.03347   0.00000   0.00000
  25        6XX         0.00099  -0.00251  -0.00146   0.00000   0.00000
  26        6YY         0.00099  -0.00251  -0.00146   0.00000   0.00000
  27        6ZZ        -0.00499   0.01075   0.00272   0.00000   0.00000
  28        6XY         0.00000   0.00000   0.00000   0.00000   0.00000
  29        6XZ         0.00000   0.00000   0.00000   0.01706   0.00000
  30        6YZ         0.00000   0.00000   0.00000   0.00000   0.01706
                           6         7         8         9        10
   6        4PZ         0.25917
   7        5PX         0.00000   0.23617
   8        5PY         0.00000   0.00000   0.23617
   9        5PZ         0.12632   0.00000   0.00000   0.06332
  10        6XX         0.00372   0.00000   0.00000   0.00163   0.00007
  11        6YY         0.00372   0.00000   0.00000   0.00163   0.00007
  12        6ZZ        -0.02586   0.00000   0.00000  -0.01200  -0.00044
  13        6XY         0.00000   0.00000   0.00000   0.00000   0.00000
  14        6XZ         0.00000  -0.00731   0.00000   0.00000   0.00000
  15        6YZ         0.00000   0.00000  -0.00731   0.00000   0.00000
  16 2   O  1S          0.01927   0.00000   0.00000   0.00024   0.00099
  17        2S         -0.05325   0.00000   0.00000  -0.00657  -0.00251
  18        3S          0.02424   0.00000   0.00000   0.03347  -0.00146
  19        4PX         0.00000  -0.08287   0.00000   0.00000   0.00000
  20        4PY         0.00000   0.00000  -0.08287   0.00000   0.00000
  21        4PZ        -0.22102   0.00000   0.00000  -0.11256  -0.00298
  22        5PX         0.00000  -0.07361   0.00000   0.00000   0.00000
  23        5PY         0.00000   0.00000  -0.07361   0.00000   0.00000
  24        5PZ        -0.11256   0.00000   0.00000  -0.05835  -0.00137
  25        6XX         0.00298   0.00000   0.00000   0.00137   0.00006
  26        6YY         0.00298   0.00000   0.00000   0.00137   0.00006
  27        6ZZ        -0.02232   0.00000   0.00000  -0.01072  -0.00037
  28        6XY         0.00000   0.00000   0.00000   0.00000   0.00000
  29        6XZ         0.00000   0.01118   0.00000   0.00000   0.00000
  30        6YZ         0.00000   0.00000   0.01118   0.00000   0.00000
                          11        12        13        14        15
  11        6YY         0.00007
  12        6ZZ        -0.00044   0.00286
  13        6XY         0.00000   0.00000   0.00000
  14        6XZ         0.00000   0.00000   0.00000   0.00108
  15        6YZ         0.00000   0.00000   0.00000   0.00000   0.00108
  16 2   O  1S          0.00099  -0.00499   0.00000   0.00000   0.00000
  17        2S         -0.00251   0.01075   0.00000   0.00000   0.00000
  18        3S         -0.00146   0.00272   0.00000   0.00000   0.00000
  19        4PX         0.00000   0.00000   0.00000  -0.01706   0.00000
  20        4PY         0.00000   0.00000   0.00000   0.00000  -0.01706
  21        4PZ        -0.00298   0.02232   0.00000   0.00000   0.00000
  22        5PX         0.00000   0.00000   0.00000  -0.01118   0.00000
  23        5PY         0.00000   0.00000   0.00000   0.00000  -0.01118
  24        5PZ        -0.00137   0.01072   0.00000   0.00000   0.00000
  25        6XX         0.00006  -0.00037   0.00000   0.00000   0.00000
  26        6YY         0.00006  -0.00037   0.00000   0.00000   0.00000
  27        6ZZ        -0.00037   0.00253   0.00000   0.00000   0.00000
  28        6XY         0.00000   0.00000   0.00000   0.00000   0.00000
  29        6XZ         0.00000   0.00000   0.00000  -0.00103   0.00000
  30        6YZ         0.00000   0.00000   0.00000   0.00000  -0.00103
                          16        17        18        19        20
  16 2   O  1S          1.04492
  17        2S         -0.09791   0.25317
  18        3S         -0.13066   0.28384   0.35882
  19        4PX         0.00000   0.00000   0.00000   0.48249
  20        4PY         0.00000   0.00000   0.00000   0.00000   0.48249
  21        4PZ         0.02650  -0.04722  -0.15160   0.00000   0.00000
  22        5PX         0.00000   0.00000   0.00000   0.33677   0.00000
  23        5PY         0.00000   0.00000   0.00000   0.00000   0.33677
  24        5PZ         0.01433  -0.02972  -0.07942   0.00000   0.00000
  25        6XX        -0.00100  -0.00058   0.00100   0.00000   0.00000
  26        6YY        -0.00100  -0.00058   0.00100   0.00000   0.00000
  27        6ZZ        -0.00141   0.00141  -0.00910   0.00000   0.00000
  28        6XY         0.00000   0.00000   0.00000   0.00000   0.00000
  29        6XZ         0.00000   0.00000   0.00000   0.01181   0.00000
  30        6YZ         0.00000   0.00000   0.00000   0.00000   0.01181
                          21        22        23        24        25
  21        4PZ         0.25917
  22        5PX         0.00000   0.23617
  23        5PY         0.00000   0.00000   0.23617
  24        5PZ         0.12632   0.00000   0.00000   0.06332
  25        6XX        -0.00372   0.00000   0.00000  -0.00163   0.00007
  26        6YY        -0.00372   0.00000   0.00000  -0.00163   0.00007
  27        6ZZ         0.02586   0.00000   0.00000   0.01200  -0.00044
  28        6XY         0.00000   0.00000   0.00000   0.00000   0.00000
  29        6XZ         0.00000   0.00731   0.00000   0.00000   0.00000
  30        6YZ         0.00000   0.00000   0.00731   0.00000   0.00000
                          26        27        28        29        30
  26        6YY         0.00007
  27        6ZZ        -0.00044   0.00286
  28        6XY         0.00000   0.00000   0.00000
  29        6XZ         0.00000   0.00000   0.00000   0.00108
  30        6YZ         0.00000   0.00000   0.00000   0.00000   0.00108
     Beta Density Matrix:
                           1         2         3         4         5
   1 1   O  1S          1.04492
   2        2S         -0.09791   0.25317
   3        3S         -0.13066   0.28384   0.35882
   4        4PX         0.00000   0.00000   0.00000   0.19827
   5        4PY         0.00000   0.00000   0.00000   0.00000   0.19827
   6        4PZ        -0.02650   0.04722   0.15160   0.00000   0.00000
   7        5PX         0.00000   0.00000   0.00000   0.12695   0.00000
   8        5PY         0.00000   0.00000   0.00000   0.00000   0.12695
   9        5PZ        -0.01433   0.02972   0.07942   0.00000   0.00000
  10        6XX        -0.00100  -0.00058   0.00100   0.00000   0.00000
  11        6YY        -0.00100  -0.00058   0.00100   0.00000   0.00000
  12        6ZZ        -0.00141   0.00141  -0.00910   0.00000   0.00000
  13        6XY         0.00000   0.00000   0.00000   0.00000   0.00000
  14        6XZ         0.00000   0.00000   0.00000  -0.01444   0.00000
  15        6YZ         0.00000   0.00000   0.00000   0.00000  -0.01444
  16 2   O  1S         -0.00018   0.00293   0.01990   0.00000   0.00000
  17        2S          0.00293  -0.01179  -0.05159   0.00000   0.00000
  18        3S          0.01990  -0.05159  -0.06636   0.00000   0.00000
  19        4PX         0.00000   0.00000   0.00000   0.19827   0.00000
  20        4PY         0.00000   0.00000   0.00000   0.00000   0.19827
  21        4PZ        -0.01927   0.05325  -0.02424   0.00000   0.00000
  22        5PX         0.00000   0.00000   0.00000   0.12695   0.00000
  23        5PY         0.00000   0.00000   0.00000   0.00000   0.12695
  24        5PZ        -0.00024   0.00657  -0.03347   0.00000   0.00000
  25        6XX         0.00099  -0.00251  -0.00146   0.00000   0.00000
  26        6YY         0.00099  -0.00251  -0.00146   0.00000   0.00000
  27        6ZZ        -0.00499   0.01075   0.00272   0.00000   0.00000
  28        6XY         0.00000   0.00000   0.00000   0.00000   0.00000
  29        6XZ         0.00000   0.00000   0.00000   0.01444   0.00000
  30        6YZ         0.00000   0.00000   0.00000   0.00000   0.01444
                           6         7         8         9        10
   6        4PZ         0.25917
   7        5PX         0.00000   0.08128
   8        5PY         0.00000   0.00000   0.08128
   9        5PZ         0.12632   0.00000   0.00000   0.06332
  10        6XX         0.00372   0.00000   0.00000   0.00163   0.00007
  11        6YY         0.00372   0.00000   0.00000   0.00163   0.00007
  12        6ZZ        -0.02586   0.00000   0.00000  -0.01200  -0.00044
  13        6XY         0.00000   0.00000   0.00000   0.00000   0.00000
  14        6XZ         0.00000  -0.00924   0.00000   0.00000   0.00000
  15        6YZ         0.00000   0.00000  -0.00924   0.00000   0.00000
  16 2   O  1S          0.01927   0.00000   0.00000   0.00024   0.00099
  17        2S         -0.05325   0.00000   0.00000  -0.00657  -0.00251
  18        3S          0.02424   0.00000   0.00000   0.03347  -0.00146
  19        4PX         0.00000   0.12695   0.00000   0.00000   0.00000
  20        4PY         0.00000   0.00000   0.12695   0.00000   0.00000
  21        4PZ        -0.22102   0.00000   0.00000  -0.11256  -0.00298
  22        5PX         0.00000   0.08128   0.00000   0.00000   0.00000
  23        5PY         0.00000   0.00000   0.08128   0.00000   0.00000
  24        5PZ        -0.11256   0.00000   0.00000  -0.05835  -0.00137
  25        6XX         0.00298   0.00000   0.00000   0.00137   0.00006
  26        6YY         0.00298   0.00000   0.00000   0.00137   0.00006
  27        6ZZ        -0.02232   0.00000   0.00000  -0.01072  -0.00037
  28        6XY         0.00000   0.00000   0.00000   0.00000   0.00000
  29        6XZ         0.00000   0.00924   0.00000   0.00000   0.00000
  30        6YZ         0.00000   0.00000   0.00924   0.00000   0.00000
                          11        12        13        14        15
  11        6YY         0.00007
  12        6ZZ        -0.00044   0.00286
  13        6XY         0.00000   0.00000   0.00000
  14        6XZ         0.00000   0.00000   0.00000   0.00105
  15        6YZ         0.00000   0.00000   0.00000   0.00000   0.00105
  16 2   O  1S          0.00099  -0.00499   0.00000   0.00000   0.00000
  17        2S         -0.00251   0.01075   0.00000   0.00000   0.00000
  18        3S         -0.00146   0.00272   0.00000   0.00000   0.00000
  19        4PX         0.00000   0.00000   0.00000  -0.01444   0.00000
  20        4PY         0.00000   0.00000   0.00000   0.00000  -0.01444
  21        4PZ        -0.00298   0.02232   0.00000   0.00000   0.00000
  22        5PX         0.00000   0.00000   0.00000  -0.00924   0.00000
  23        5PY         0.00000   0.00000   0.00000   0.00000  -0.00924
  24        5PZ        -0.00137   0.01072   0.00000   0.00000   0.00000
  25        6XX         0.00006  -0.00037   0.00000   0.00000   0.00000
  26        6YY         0.00006  -0.00037   0.00000   0.00000   0.00000
  27        6ZZ        -0.00037   0.00253   0.00000   0.00000   0.00000
  28        6XY         0.00000   0.00000   0.00000   0.00000   0.00000
  29        6XZ         0.00000   0.00000   0.00000  -0.00105   0.00000
  30        6YZ         0.00000   0.00000   0.00000   0.00000  -0.00105
                          16        17        18        19        20
  16 2   O  1S          1.04492
  17        2S         -0.09791   0.25317
  18        3S         -0.13066   0.28384   0.35882
  19        4PX         0.00000   0.00000   0.00000   0.19827
  20        4PY         0.00000   0.00000   0.00000   0.00000   0.19827
  21        4PZ         0.02650  -0.04722  -0.15160   0.00000   0.00000
  22        5PX         0.00000   0.00000   0.00000   0.12695   0.00000
  23        5PY         0.00000   0.00000   0.00000   0.00000   0.12695
  24        5PZ         0.01433  -0.02972  -0.07942   0.00000   0.00000
  25        6XX        -0.00100  -0.00058   0.00100   0.00000   0.00000
  26        6YY        -0.00100  -0.00058   0.00100   0.00000   0.00000
  27        6ZZ        -0.00141   0.00141  -0.00910   0.00000   0.00000
  28        6XY         0.00000   0.00000   0.00000   0.00000   0.00000
  29        6XZ         0.00000   0.00000   0.00000   0.01444   0.00000
  30        6YZ         0.00000   0.00000   0.00000   0.00000   0.01444
                          21        22        23        24        25
  21        4PZ         0.25917
  22        5PX         0.00000   0.08128
  23        5PY         0.00000   0.00000   0.08128
  24        5PZ         0.12632   0.00000   0.00000   0.06332
  25        6XX        -0.00372   0.00000   0.00000  -0.00163   0.00007
  26        6YY        -0.00372   0.00000   0.00000  -0.00163   0.00007
  27        6ZZ         0.02586   0.00000   0.00000   0.01200  -0.00044
  28        6XY         0.00000   0.00000   0.00000   0.00000   0.00000
  29        6XZ         0.00000   0.00924   0.00000   0.00000   0.00000
  30        6YZ         0.00000   0.00000   0.00924   0.00000   0.00000
                          26        27        28        29        30
  26        6YY         0.00007
  27        6ZZ        -0.00044   0.00286
  28        6XY         0.00000   0.00000   0.00000
  29        6XZ         0.00000   0.00000   0.00000   0.00105
  30        6YZ         0.00000   0.00000   0.00000   0.00000   0.00105
    Full Mulliken population analysis:
                           1         2         3         4         5
   1 1   O  1S          2.08985
   2        2S         -0.04410   0.50633
   3        3S         -0.04803   0.44973   0.71764
   4        4PX         0.00000   0.00000   0.00000   0.68076
   5        4PY         0.00000   0.00000   0.00000   0.00000   0.68076
   6        4PZ         0.00000   0.00000   0.00000   0.00000   0.00000
   7        5PX         0.00000   0.00000   0.00000   0.23245   0.00000
   8        5PY         0.00000   0.00000   0.00000   0.00000   0.23245
   9        5PZ         0.00000   0.00000   0.00000   0.00000   0.00000
  10        6XX        -0.00012  -0.00077   0.00133   0.00000   0.00000
  11        6YY        -0.00012  -0.00077   0.00133   0.00000   0.00000
  12        6ZZ        -0.00017   0.00185  -0.01209   0.00000   0.00000
  13        6XY         0.00000   0.00000   0.00000   0.00000   0.00000
  14        6XZ         0.00000   0.00000   0.00000   0.00000   0.00000
  15        6YZ         0.00000   0.00000   0.00000   0.00000   0.00000
  16 2   O  1S          0.00000   0.00002   0.00157   0.00000   0.00000
  17        2S          0.00002  -0.00189  -0.02427   0.00000   0.00000
  18        3S          0.00157  -0.02427  -0.05966   0.00000   0.00000
  19        4PX         0.00000   0.00000   0.00000   0.00432   0.00000
  20        4PY         0.00000   0.00000   0.00000   0.00000   0.00432
  21        4PZ        -0.00037   0.01362  -0.00928   0.00000   0.00000
  22        5PX         0.00000   0.00000   0.00000   0.00682   0.00000
  23        5PY         0.00000   0.00000   0.00000   0.00000   0.00682
  24        5PZ        -0.00005   0.00607  -0.03939   0.00000   0.00000
  25        6XX         0.00000  -0.00019  -0.00054   0.00000   0.00000
  26        6YY         0.00000  -0.00019  -0.00054   0.00000   0.00000
  27        6ZZ        -0.00021   0.00468   0.00167   0.00000   0.00000
  28        6XY         0.00000   0.00000   0.00000   0.00000   0.00000
  29        6XZ         0.00000   0.00000   0.00000   0.00311   0.00000
  30        6YZ         0.00000   0.00000   0.00000   0.00000   0.00311
                           6         7         8         9        10
   6        4PZ         0.51833
   7        5PX         0.00000   0.31746
   8        5PY         0.00000   0.00000   0.31746
   9        5PZ         0.12664   0.00000   0.00000   0.12664
  10        6XX         0.00000   0.00000   0.00000   0.00000   0.00015
  11        6YY         0.00000   0.00000   0.00000   0.00000   0.00005
  12        6ZZ         0.00000   0.00000   0.00000   0.00000  -0.00029
  13        6XY         0.00000   0.00000   0.00000   0.00000   0.00000
  14        6XZ         0.00000   0.00000   0.00000   0.00000   0.00000
  15        6YZ         0.00000   0.00000   0.00000   0.00000   0.00000
  16 2   O  1S         -0.00037   0.00000   0.00000  -0.00005   0.00000
  17        2S          0.01362   0.00000   0.00000   0.00607  -0.00019
  18        3S         -0.00928   0.00000   0.00000  -0.03939  -0.00054
  19        4PX         0.00000   0.00682   0.00000   0.00000   0.00000
  20        4PY         0.00000   0.00000   0.00682   0.00000   0.00000
  21        4PZ         0.08272   0.00000   0.00000   0.04692  -0.00036
  22        5PX         0.00000   0.00371   0.00000   0.00000   0.00000
  23        5PY         0.00000   0.00000   0.00371   0.00000   0.00000
  24        5PZ         0.04692   0.00000   0.00000   0.02572  -0.00107
  25        6XX        -0.00036   0.00000   0.00000  -0.00107   0.00001
  26        6YY        -0.00036   0.00000   0.00000  -0.00107   0.00000
  27        6ZZ         0.01329   0.00000   0.00000   0.00905  -0.00008
  28        6XY         0.00000   0.00000   0.00000   0.00000   0.00000
  29        6XZ         0.00000   0.00320   0.00000   0.00000   0.00000
  30        6YZ         0.00000   0.00000   0.00320   0.00000   0.00000
                          11        12        13        14        15
  11        6YY         0.00015
  12        6ZZ        -0.00029   0.00572
  13        6XY         0.00000   0.00000   0.00000
  14        6XZ         0.00000   0.00000   0.00000   0.00213
  15        6YZ         0.00000   0.00000   0.00000   0.00000   0.00213
  16 2   O  1S          0.00000  -0.00021   0.00000   0.00000   0.00000
  17        2S         -0.00019   0.00468   0.00000   0.00000   0.00000
  18        3S         -0.00054   0.00167   0.00000   0.00000   0.00000
  19        4PX         0.00000   0.00000   0.00000   0.00311   0.00000
  20        4PY         0.00000   0.00000   0.00000   0.00000   0.00311
  21        4PZ        -0.00036   0.01329   0.00000   0.00000   0.00000
  22        5PX         0.00000   0.00000   0.00000   0.00320   0.00000
  23        5PY         0.00000   0.00000   0.00000   0.00000   0.00320
  24        5PZ        -0.00107   0.00905   0.00000   0.00000   0.00000
  25        6XX         0.00000  -0.00008   0.00000   0.00000   0.00000
  26        6YY         0.00001  -0.00008   0.00000   0.00000   0.00000
  27        6ZZ        -0.00008   0.00219   0.00000   0.00000   0.00000
  28        6XY         0.00000   0.00000   0.00000   0.00000   0.00000
  29        6XZ         0.00000   0.00000   0.00000   0.00048   0.00000
  30        6YZ         0.00000   0.00000   0.00000   0.00000   0.00048
                          16        17        18        19        20
  16 2   O  1S          2.08985
  17        2S         -0.04410   0.50633
  18        3S         -0.04803   0.44973   0.71764
  19        4PX         0.00000   0.00000   0.00000   0.68076
  20        4PY         0.00000   0.00000   0.00000   0.00000   0.68076
  21        4PZ         0.00000   0.00000   0.00000   0.00000   0.00000
  22        5PX         0.00000   0.00000   0.00000   0.23245   0.00000
  23        5PY         0.00000   0.00000   0.00000   0.00000   0.23245
  24        5PZ         0.00000   0.00000   0.00000   0.00000   0.00000
  25        6XX        -0.00012  -0.00077   0.00133   0.00000   0.00000
  26        6YY        -0.00012  -0.00077   0.00133   0.00000   0.00000
  27        6ZZ        -0.00017   0.00185  -0.01209   0.00000   0.00000
  28        6XY         0.00000   0.00000   0.00000   0.00000   0.00000
  29        6XZ         0.00000   0.00000   0.00000   0.00000   0.00000
  30        6YZ         0.00000   0.00000   0.00000   0.00000   0.00000
                          21        22        23        24        25
  21        4PZ         0.51833
  22        5PX         0.00000   0.31746
  23        5PY         0.00000   0.00000   0.31746
  24        5PZ         0.12664   0.00000   0.00000   0.12664
  25        6XX         0.00000   0.00000   0.00000   0.00000   0.00015
  26        6YY         0.00000   0.00000   0.00000   0.00000   0.00005
  27        6ZZ         0.00000   0.00000   0.00000   0.00000  -0.00029
  28        6XY         0.00000   0.00000   0.00000   0.00000   0.00000
  29        6XZ         0.00000   0.00000   0.00000   0.00000   0.00000
  30        6YZ         0.00000   0.00000   0.00000   0.00000   0.00000
                          26        27        28        29        30
  26        6YY         0.00015
  27        6ZZ        -0.00029   0.00572
  28        6XY         0.00000   0.00000   0.00000
  29        6XZ         0.00000   0.00000   0.00000   0.00213
  30        6YZ         0.00000   0.00000   0.00000   0.00000   0.00213
     Gross orbital populations:
                         Total     Alpha     Beta      Spin
   1 1   O  1S          1.99827   0.99913   0.99913   0.00000
   2        2S          0.91015   0.45508   0.45508   0.00000
   3        3S          0.97947   0.48973   0.48973   0.00000
   4        4PX         0.92745   0.63686   0.29059   0.34627
   5        4PY         0.92745   0.63686   0.29059   0.34627
   6        4PZ         0.79116   0.39558   0.39558   0.00000
   7        5PX         0.56363   0.35839   0.20524   0.15315
   8        5PY         0.56363   0.35839   0.20524   0.15315
   9        5PZ         0.29948   0.14974   0.14974   0.00000
  10        6XX        -0.00189  -0.00094  -0.00094   0.00000
  11        6YY        -0.00189  -0.00094  -0.00094   0.00000
  12        6ZZ         0.02523   0.01262   0.01262   0.00000
  13        6XY         0.00000   0.00000   0.00000   0.00000
  14        6XZ         0.00892   0.00475   0.00417   0.00058
  15        6YZ         0.00892   0.00475   0.00417   0.00058
  16 2   O  1S          1.99827   0.99913   0.99913   0.00000
  17        2S          0.91015   0.45508   0.45508   0.00000
  18        3S          0.97947   0.48973   0.48973   0.00000
  19        4PX         0.92745   0.63686   0.29059   0.34627
  20        4PY         0.92745   0.63686   0.29059   0.34627
  21        4PZ         0.79116   0.39558   0.39558   0.00000
  22        5PX         0.56363   0.35839   0.20524   0.15315
  23        5PY         0.56363   0.35839   0.20524   0.15315
  24        5PZ         0.29948   0.14974   0.14974   0.00000
  25        6XX        -0.00189  -0.00094  -0.00094   0.00000
  26        6YY        -0.00189  -0.00094  -0.00094   0.00000
  27        6ZZ         0.02523   0.01262   0.01262   0.00000
  28        6XY         0.00000   0.00000   0.00000   0.00000
  29        6XZ         0.00892   0.00475   0.00417   0.00058
  30        6YZ         0.00892   0.00475   0.00417   0.00058
          Condensed to atoms (all electrons):
               1          2
     1  O    7.843646   0.156354
     2  O    0.156354   7.843646
          Atomic-Atomic Spin Densities.
               1          2
     1  O    1.298968  -0.298968
     2  O   -0.298968   1.298968
 Mulliken charges and spin densities:
               1          2
     1  O    0.000000   1.000000
     2  O    0.000000   1.000000
 Sum of Mulliken charges =   0.00000   2.00000
 Mulliken charges and spin densities with hydrogens summed into heavy atoms:
               1          2
     1  O    0.000000   1.000000
     2  O    0.000000   1.000000
 Electronic spatial extent (au):  <R**2>=             43.6353
 Charge=              0.0000 electrons
 Dipole moment (field-independent basis, Debye):
    X=              0.0000    Y=              0.0000    Z=              0.0000  Tot=              0.0000
 Quadrupole moment (field-independent basis, Debye-Ang):
   XX=             -9.8813   YY=             -9.8813   ZZ=            -10.4644
   XY=              0.0000   XZ=              0.0000   YZ=              0.0000
 Traceless Quadrupole moment (field-independent basis, Debye-Ang):
   XX=              0.1943   YY=              0.1943   ZZ=             -0.3887
   XY=              0.0000   XZ=              0.0000   YZ=              0.0000
 Octapole moment (field-independent basis, Debye-Ang**2):
  XXX=              0.0000  YYY=              0.0000  ZZZ=              0.0000  XYY=              0.0000
  XXY=              0.0000  XXZ=              0.0000  XZZ=              0.0000  YZZ=              0.0000
  YYZ=              0.0000  XYZ=              0.0000
 Hexadecapole moment (field-independent basis, Debye-Ang**3):
 XXXX=             -6.4619 YYYY=             -6.4619 ZZZZ=            -28.1069 XXXY=              0.0000
 XXXZ=              0.0000 YYYX=              0.0000 YYYZ=              0.0000 ZZZX=              0.0000
 ZZZY=              0.0000 XXYY=             -2.1540 XXZZ=             -5.9706 YYZZ=             -5.9706
 XXYZ=              0.0000 YYXZ=              0.0000 ZZXY=              0.0000
 N-N= 2.782461435104D+01 E-N=-4.104901710933D+02  KE= 1.493522271318D+02
 Orbital energies and kinetic energies (alpha):
                                 1                 2
   1         O               -20.724329         29.188639
   2         O               -20.723302         29.201552
   3         O                -1.626758          2.844701
   4         O                -1.071164          3.323091
   5         O                -0.716058          2.705132
   6         O                -0.658639          2.203866
   7         O                -0.658639          2.203866
   8         O                -0.141137          3.005268
   9         O                -0.141137          3.005268
  10         V                 0.441116          3.325821
  11         V                 1.065859          3.924130
  12         V                 1.093954          3.600049
  13         V                 1.093954          3.600049
  14         V                 1.145137          2.956463
  15         V                 1.167718          2.460747
  16         V                 1.200756          3.253944
  17         V                 1.200756          3.253944
  18         V                 1.829882          3.011608
  19         V                 2.391693          3.804291
  20         V                 2.391693          3.804291
  21         V                 2.671252          3.992602
  22         V                 2.671252          3.992602
  23         V                 2.981176          4.316492
  24         V                 2.981176          4.316492
  25         V                 3.136558          5.085255
  26         V                 3.649863          5.066584
  27         V                 3.649863          5.066584
  28         V                 4.180519          6.160056
  29         V                 5.412015         13.395219
  30         V                 5.977461         13.992672
 Total kinetic energy from orbitals= 1.553627631634D+02
                          Isotropic Fermi Contact Couplings
        Atom                 a.u.       MegaHertz       Gauss      10(-4) cm-1
     1  O(17)              0.00000       0.00000       0.00000       0.00000
     2  O(17)              0.00000       0.00000       0.00000       0.00000
 --------------------------------------------------------
       Center         ----  Spin Dipole Couplings  ----
                      3XX-RR        3YY-RR        3ZZ-RR
 --------------------------------------------------------
     1   Atom        1.062020      1.062020     -2.124040
     2   Atom        1.062020      1.062020     -2.124040
 --------------------------------------------------------
                        XY            XZ            YZ
 --------------------------------------------------------
     1   Atom        0.000000      0.000000      0.000000
     2   Atom        0.000000      0.000000      0.000000
 --------------------------------------------------------


 ---------------------------------------------------------------------------------
              Anisotropic Spin Dipole Couplings in Principal Axis System
 ---------------------------------------------------------------------------------

       Atom             a.u.   MegaHertz   Gauss  10(-4) cm-1        Axes

              Baa    -2.1240   153.694    54.842    51.267  0.0000  0.0000  1.0000
     1 O(17)  Bbb     1.0620   -76.847   -27.421   -25.633  0.8474 -0.5310  0.0000
              Bcc     1.0620   -76.847   -27.421   -25.633  0.5310  0.8474  0.0000
 
              Baa    -2.1240   153.694    54.842    51.267  0.0000  0.0000  1.0000
     2 O(17)  Bbb     1.0620   -76.847   -27.421   -25.633  0.3966  0.9180  0.0000
              Bcc     1.0620   -76.847   -27.421   -25.633  0.9180 -0.3966  0.0000
 

 ---------------------------------------------------------------------------------

 No NMR shielding tensors so no spin-rotation constants.
 Leave Link  601 at Thu Sep 24 12:06:13 2015, MaxMem=    33554432 cpu:               0.2 elap:               0.2
 (Enter /home/gauss/gdvi01p/gdv/l9999.exe)
 Unable to Open any file for archive entry.
 1\1\GINC-MEDUSA\SP\ROHF\CC-pVDZ\O2(3)\DBWY\24-Sep-2015\0\\#p rohf/cc-p
 VDZ gfinput pop=full nosymm 6D\\O2 cc-pVDZ\\0,3\O,0,0.,0.,0.608586\O,0
 ,0.,0.,-0.608586\\Version=ES64L-GDVRevI.01+\HF=-149.6079043\RMSD=2.782
 e-09\Dipole=0.,0.,0.\Quadrupole=0.1444871,0.1444871,-0.2889741,0.,0.,0
 .\PG=D*H [C*(O1.O1)]\\@
 The archive entry for this job was punched.


 TIMES HAVE CHANGED. IN THE BIBLE WHEN AN ASS
 SPOKE IT WAS CONSIDERED A MIRACLE.
 Job cpu time:       0 days  0 hours  0 minutes  0.9 seconds.
 Elapsed time:       0 days  0 hours  0 minutes  0.8 seconds.
 File lengths (MBytes):  RWF=      5 Int=      0 D2E=      0 Chk=      1 Scr=      1
 Normal termination of Gaussian DV at Thu Sep 24 12:06:13 2015.
