 Entering Gaussian System, Link 0=gdv
 Input=O2_sto3g_TD.com
 Output=O2_sto3g_TD.log
 Initial command:
 /home/gauss/gdvi03p/gdv/l1.exe "/home/GauScr/Gau-23697.inp" -scrdir="/home/GauScr/"
 Entering Link 1 = /home/gauss/gdvi03p/gdv/l1.exe PID=     23698.
  
 Copyright (c) 1988,1990,1992,1993,1995,1998,2003,2009,2015,
            Gaussian, Inc.  All Rights Reserved.
  
 This is the private, development version of
 the Gaussian(R) DV system of programs. It is based on
 the Gaussian(R) 09 system (copyright 2009, Gaussian, Inc.),
 the Gaussian(R) 03 system (copyright 2003, Gaussian, Inc.),
 the Gaussian(R) 98 system (copyright 1998, Gaussian, Inc.),
 the Gaussian(R) 94 system (copyright 1995, Gaussian, Inc.),
 the Gaussian 92(TM) system (copyright 1992, Gaussian, Inc.),
 the Gaussian 90(TM) system (copyright 1990, Gaussian, Inc.),
 the Gaussian 88(TM) system (copyright 1988, Gaussian, Inc.),
 the Gaussian 86(TM) system (copyright 1986, Carnegie Mellon
 University), and the Gaussian 82(TM) system (copyright 1983,
 Carnegie Mellon University). Gaussian is a federally registered
 trademark of Gaussian, Inc.
  
 This software contains proprietary and confidential information,
 including trade secrets, belonging to Gaussian, Inc.
  
 This software is provided under written license and may be
 used, copied, transmitted, or stored only in accord with that
 written license.
  
 The following legend is applicable only to US Government
 contracts under FAR:
  
                    RESTRICTED RIGHTS LEGEND
  
 Use, reproduction and disclosure by the US Government is
 subject to restrictions as set forth in subparagraphs (a)
 and (c) of the Commercial Computer Software - Restricted
 Rights clause in FAR 52.227-19.
  
 Gaussian, Inc.
 340 Quinnipiac St., Bldg. 40, Wallingford CT 06492
  
  
 ---------------------------------------------------------------
 Warning -- This program may not be used in any manner that
 competes with the business of Gaussian, Inc. or will provide
 assistance to any competitor of Gaussian, Inc.  The licensee
 of this program is prohibited from giving any competitor of
 Gaussian, Inc. access to this program.  By using this program,
 the user acknowledges that Gaussian, Inc. is engaged in the
 business of creating and licensing software in the field of
 computational chemistry and represents and warrants to the
 licensee that it is not a competitor of Gaussian, Inc. and that
 it will not use this program in any manner prohibited above.
 ---------------------------------------------------------------
  

 Cite this work as:
 Gaussian Development Version, Revision I.03+,
 M. J. Frisch, G. W. Trucks, H. B. Schlegel, G. E. Scuseria, 
 M. A. Robb, J. R. Cheeseman, G. Scalmani, V. Barone, B. Mennucci, 
 G. A. Petersson, H. Nakatsuji, M. Caricato, X. Li, H. P. Hratchian, 
 J. Bloino, B. G. Janesko, A. F. Izmaylov, A. Marenich, F. Lipparini, 
 G. Zheng, J. L. Sonnenberg, W. Liang, M. Hada, M. Ehara, K. Toyota, 
 R. Fukuda, J. Hasegawa, M. Ishida, T. Nakajima, Y. Honda, O. Kitao, 
 H. Nakai, T. Vreven, K. Throssell, J. A. Montgomery, Jr., 
 J. E. Peralta, F. Ogliaro, M. Bearpark, J. J. Heyd, E. Brothers, 
 K. N. Kudin, V. N. Staroverov, T. Keith, R. Kobayashi, J. Normand, 
 K. Raghavachari, A. Rendell, J. C. Burant, S. S. Iyengar, J. Tomasi, 
 M. Cossi, N. Rega, J. M. Millam, M. Klene, J. E. Knox, J. B. Cross, 
 V. Bakken, C. Adamo, J. Jaramillo, R. Gomperts, R. E. Stratmann, 
 O. Yazyev, A. J. Austin, R. Cammi, C. Pomelli, J. W. Ochterski, 
 R. L. Martin, K. Morokuma, V. G. Zakrzewski, G. A. Voth, 
 P. Salvador, J. J. Dannenberg, S. Dapprich, P. V. Parandekar, 
 N. J. Mayhall, A. D. Daniels, O. Farkas, J. B. Foresman, 
 J. V. Ortiz, J. Cioslowski, and D. J. Fox, 
 Gaussian, Inc., Wallingford CT, 2014.
 
 *******************************************
 Gaussian DV:  ES64L-GDVRevI.03+  2-May-2015
                 28-Oct-2015 
 *******************************************
 ---------------------------------------------------------
 #p uhf/sto-3g gfinput pop=full nosymm td(full,nstates=12)
 ---------------------------------------------------------
 1/38=1,172=1/1;
 2/12=2,15=1,17=6,18=5,40=1/2;
 3/6=3,11=2,24=10,25=1,30=1,116=2/1,2,3,8;
 4//1;
 5/5=2,38=5/2;
 8/6=1,10=90,108=12/1,4;
 9/41=12,42=3,70=2/14;
 6/7=3/1;
 99/5=1,9=1/99;
 Leave Link    1 at Wed Oct 28 10:12:19 2015, MaxMem=           0 cpu:               0.0 elap:               0.0
 (Enter /home/gauss/gdvi03p/gdv/l101.exe)
 ---------
 O2 STO-3G
 ---------
 Symbolic Z-matrix:
 Charge =  0 Multiplicity = 3
 O                     0.        0.        0.60859 
 O                     0.        0.       -0.60859 
 
 ITRead=  0  0
 MicOpt= -1 -1
 NAtoms=      2 NQM=        2 NQMF=       0 NMMI=      0 NMMIF=      0
                NMic=       0 NMicF=      0.
                    Isotopes and Nuclear Properties:
 (Nuclear quadrupole moments (NQMom) in fm**2, nuclear magnetic moments (NMagM)
  in nuclear magnetons)

  Atom         1           2
 IAtWgt=          16          16
 AtmWgt=  15.9949146  15.9949146
 NucSpn=           0           0
 AtZEff=   0.0000000   0.0000000
 NQMom=    0.0000000   0.0000000
 NMagM=    0.0000000   0.0000000
 AtZNuc=   8.0000000   8.0000000
 Leave Link  101 at Wed Oct 28 10:12:19 2015, MaxMem=    33554432 cpu:               0.1 elap:               0.1
 (Enter /home/gauss/gdvi03p/gdv/l202.exe)
                          Input orientation:                          
 ---------------------------------------------------------------------
 Center     Atomic      Atomic             Coordinates (Angstroms)
 Number     Number       Type             X           Y           Z
 ---------------------------------------------------------------------
      1          8           0        0.000000    0.000000    0.608586
      2          8           0        0.000000    0.000000   -0.608586
 ---------------------------------------------------------------------
 Symmetry turned off by external request.
 Stoichiometry    O2(3)
 Framework group  D*H[C*(O.O)]
 Deg. of freedom     1
 Full point group                 D*H     NOp   8
 Rotational constants (GHZ):      0.0000000     42.6541569     42.6541569
 Leave Link  202 at Wed Oct 28 10:12:19 2015, MaxMem=    33554432 cpu:               0.0 elap:               0.0
 (Enter /home/gauss/gdvi03p/gdv/l301.exe)
 Standard basis: STO-3G (5D, 7F)
 Ernie: Thresh=  0.10000D-02 Tol=  0.10000D-05 Strict=F.
 AO basis set in the form of general basis input (Overlap normalization):
      1 0
 S   3 1.00       0.000000000000
      0.1307093214D+03  0.1543289673D+00
      0.2380886605D+02  0.5353281423D+00
      0.6443608313D+01  0.4446345422D+00
 SP   3 1.00       0.000000000000
      0.5033151319D+01 -0.9996722919D-01  0.1559162750D+00
      0.1169596125D+01  0.3995128261D+00  0.6076837186D+00
      0.3803889600D+00  0.7001154689D+00  0.3919573931D+00
 ****
      2 0
 S   3 1.00       0.000000000000
      0.1307093214D+03  0.1543289673D+00
      0.2380886605D+02  0.5353281423D+00
      0.6443608313D+01  0.4446345422D+00
 SP   3 1.00       0.000000000000
      0.5033151319D+01 -0.9996722919D-01  0.1559162750D+00
      0.1169596125D+01  0.3995128261D+00  0.6076837186D+00
      0.3803889600D+00  0.7001154689D+00  0.3919573931D+00
 ****

    10 basis functions,    30 primitive gaussians,    10 cartesian basis functions
     9 alpha electrons        7 beta electrons
       nuclear repulsion energy        27.8246143510 Hartrees.
 IExCor=    0 DFT=F Ex=HF Corr=None ExCW=0 ScaHFX=  1.000000
 ScaDFX=  1.000000  1.000000  1.000000  1.000000 ScalE2=  1.000000  1.000000
 IRadAn=      0 IRanWt=     -1 IRanGd=            0 ICorTp=0 IEmpDi=  4
 NAtoms=    2 NActive=    2 NUniq=    2 SFac= 1.00D+00 NAtFMM=   60 NAOKFM=F Big=F
 Integral buffers will be    131072 words long.
 Raffenetti 2 integral format.
 Two-electron integral symmetry is turned off.
 Leave Link  301 at Wed Oct 28 10:12:19 2015, MaxMem=    33554432 cpu:               0.0 elap:               0.1
 (Enter /home/gauss/gdvi03p/gdv/l302.exe)
 NPDir=0 NMtPBC=     1 NCelOv=     1 NCel=       1 NClECP=     1 NCelD=      1
         NCelK=      1 NCelE2=     1 NClLst=     1 CellRange=     0.0.
 One-electron integrals computed using PRISM.
 One-electron integral symmetry used in STVInt
 NBasis=    10 RedAO= T EigKep=  3.67D-01  NBF=    10
 NBsUse=    10 1.00D-06 EigRej= -1.00D+00 NBFU=    10
 Leave Link  302 at Wed Oct 28 10:12:19 2015, MaxMem=    33554432 cpu:               0.1 elap:               0.1
 (Enter /home/gauss/gdvi03p/gdv/l303.exe)
 DipDrv:  MaxL=1.
 Leave Link  303 at Wed Oct 28 10:12:19 2015, MaxMem=    33554432 cpu:               0.0 elap:               0.0
 (Enter /home/gauss/gdvi03p/gdv/l308.exe)
 Leave Link  308 at Wed Oct 28 10:12:19 2015, MaxMem=    33554432 cpu:               0.0 elap:               0.0
 (Enter /home/gauss/gdvi03p/gdv/l401.exe)
 ExpMin= 3.80D-01 ExpMax= 1.31D+02 ExpMxC= 1.31D+02 IAcc=1 IRadAn=         1 AccDes= 0.00D+00
 Harris functional with IExCor=  205 and IRadAn=       1 diagonalized for initial guess.
 HarFok:  IExCor=  205 AccDes= 0.00D+00 IRadAn=         1 IDoV= 1 UseB2=F ITyADJ=14
 ICtDFT=  3500011 ScaDFX=  1.000000  1.000000  1.000000  1.000000
 FoFCou: FMM=F IPFlag=           0 FMFlag=      100000 FMFlg1=           0
         NFxFlg=           0 DoJE=T BraDBF=F KetDBF=T FulRan=T
         wScrn=  0.000000 ICntrl=       500 IOpCl=  0 I1Cent=   200000004 NGrid=           0
         NMat0=    1 NMatS0=      1 NMatT0=    0 NMatD0=    1 NMtDS0=    0 NMtDT0=    0
 Symmetry not used in FoFCou.
 Harris En= -147.510557514834    
 JPrj=0 DoOrth=F DoCkMO=F.
 Initial guess <Sx>= 0.0000 <Sy>= 0.0000 <Sz>= 1.0000 <S**2>= 2.0000 S= 1.0000
 Leave Link  401 at Wed Oct 28 10:12:19 2015, MaxMem=    33554432 cpu:               0.1 elap:               0.1
 (Enter /home/gauss/gdvi03p/gdv/l502.exe)
 Keep R1 and R2 ints in memory in canonical form, NReq=805396.
 FoFCou: FMM=F IPFlag=           0 FMFlag=           0 FMFlg1=           0
         NFxFlg=           0 DoJE=F BraDBF=F KetDBF=F FulRan=T
         wScrn=  0.000000 ICntrl=       600 IOpCl=  0 I1Cent=           0 NGrid=           0
         NMat0=    1 NMatS0=     55 NMatT0=    0 NMatD0=    1 NMtDS0=    0 NMtDT0=    0
 Symmetry not used in FoFCou.
 Two-electron integral symmetry not used.
 UHF open shell SCF:
 Using DIIS extrapolation, IDIIS=  1040.
 NGot=    33554432 LenX=    33550028 LenY=    33549146
 Requested convergence on RMS density matrix=1.00D-08 within 128 cycles.
 Requested convergence on MAX density matrix=1.00D-06.
 Requested convergence on             energy=1.00D-06.
 No special actions if energy rises.

 Cycle   1  Pass 1  IDiag  1:
 E= -147.630961797902    
 DIIS: error= 3.62D-02 at cycle   1 NSaved=   1.
 NSaved= 1 IEnMin= 1 EnMin= -147.630961797902     IErMin= 1 ErrMin= 3.62D-02
 ErrMax= 3.62D-02  0.00D+00 EMaxC= 1.00D-01 BMatC= 1.92D-02 BMatP= 1.92D-02
 IDIUse=3 WtCom= 6.38D-01 WtEn= 3.62D-01
 Coeff-Com:  0.100D+01
 Coeff-En:   0.100D+01
 Coeff:      0.100D+01
 Gap=     1.089 Goal=   None    Shift=    0.000
 Gap=     0.707 Goal=   None    Shift=    0.000
 GapD=    0.707 DampG=2.000 DampE=0.500 DampFc=1.0000 IDamp=-1.
 RMSDP=6.36D-03 MaxDP=2.92D-02              OVMax= 0.00D+00

 Cycle   2  Pass 1  IDiag  1:
 E= -147.633834279283     Delta-E=       -0.002872481381 Rises=F Damp=F
 DIIS: error= 7.99D-03 at cycle   2 NSaved=   2.
 NSaved= 2 IEnMin= 2 EnMin= -147.633834279283     IErMin= 2 ErrMin= 7.99D-03
 ErrMax= 7.99D-03  0.00D+00 EMaxC= 1.00D-01 BMatC= 7.92D-04 BMatP= 1.92D-02
 IDIUse=3 WtCom= 9.20D-01 WtEn= 7.99D-02
 Coeff-Com: -0.152D+00 0.115D+01
 Coeff-En:   0.000D+00 0.100D+01
 Coeff:     -0.139D+00 0.114D+01
 Gap=     1.091 Goal=   None    Shift=    0.000
 Gap=     0.707 Goal=   None    Shift=    0.000
 RMSDP=2.40D-03 MaxDP=1.04D-02 DE=-2.87D-03 OVMax= 0.00D+00

 Cycle   3  Pass 1  IDiag  1:
 E= -147.634143478409     Delta-E=       -0.000309199126 Rises=F Damp=F
 DIIS: error= 1.74D-03 at cycle   3 NSaved=   3.
 NSaved= 3 IEnMin= 3 EnMin= -147.634143478409     IErMin= 3 ErrMin= 1.74D-03
 ErrMax= 1.74D-03  0.00D+00 EMaxC= 1.00D-01 BMatC= 5.86D-05 BMatP= 7.92D-04
 IDIUse=3 WtCom= 9.83D-01 WtEn= 1.74D-02
 Coeff-Com:  0.320D-01-0.474D+00 0.144D+01
 Coeff-En:   0.000D+00 0.000D+00 0.100D+01
 Coeff:      0.314D-01-0.466D+00 0.143D+01
 Gap=     1.090 Goal=   None    Shift=    0.000
 Gap=     0.707 Goal=   None    Shift=    0.000
 RMSDP=9.12D-04 MaxDP=3.42D-03 DE=-3.09D-04 OVMax= 0.00D+00

 Cycle   4  Pass 1  IDiag  1:
 E= -147.634171145456     Delta-E=       -0.000027667048 Rises=F Damp=F
 DIIS: error= 2.28D-04 at cycle   4 NSaved=   4.
 NSaved= 4 IEnMin= 4 EnMin= -147.634171145456     IErMin= 4 ErrMin= 2.28D-04
 ErrMax= 2.28D-04  0.00D+00 EMaxC= 1.00D-01 BMatC= 6.45D-07 BMatP= 5.86D-05
 IDIUse=3 WtCom= 9.98D-01 WtEn= 2.28D-03
 Coeff-Com: -0.808D-02 0.151D+00-0.531D+00 0.139D+01
 Coeff-En:   0.000D+00 0.000D+00 0.000D+00 0.100D+01
 Coeff:     -0.806D-02 0.150D+00-0.530D+00 0.139D+01
 Gap=     1.090 Goal=   None    Shift=    0.000
 Gap=     0.707 Goal=   None    Shift=    0.000
 RMSDP=9.87D-05 MaxDP=4.63D-04 DE=-2.77D-05 OVMax= 0.00D+00

 Cycle   5  Pass 1  IDiag  1:
 E= -147.634171441361     Delta-E=       -0.000000295904 Rises=F Damp=F
 DIIS: error= 2.34D-07 at cycle   5 NSaved=   5.
 NSaved= 5 IEnMin= 5 EnMin= -147.634171441361     IErMin= 5 ErrMin= 2.34D-07
 ErrMax= 2.34D-07  0.00D+00 EMaxC= 1.00D-01 BMatC= 6.79D-13 BMatP= 6.45D-07
 IDIUse=1 WtCom= 1.00D+00 WtEn= 0.00D+00
 Coeff-Com:  0.166D-03-0.300D-02 0.105D-01-0.274D-01 0.102D+01
 Coeff:      0.166D-03-0.300D-02 0.105D-01-0.274D-01 0.102D+01
 Gap=     1.090 Goal=   None    Shift=    0.000
 Gap=     0.707 Goal=   None    Shift=    0.000
 RMSDP=3.71D-08 MaxDP=1.33D-07 DE=-2.96D-07 OVMax= 0.00D+00

 Cycle   6  Pass 1  IDiag  1:
 E= -147.634171441361     Delta-E=        0.000000000000 Rises=F Damp=F
 DIIS: error= 5.48D-09 at cycle   6 NSaved=   6.
 NSaved= 6 IEnMin= 6 EnMin= -147.634171441361     IErMin= 6 ErrMin= 5.48D-09
 ErrMax= 5.48D-09  0.00D+00 EMaxC= 1.00D-01 BMatC= 3.70D-16 BMatP= 6.79D-13
 IDIUse=1 WtCom= 1.00D+00 WtEn= 0.00D+00
 Coeff-Com:  0.129D-06-0.623D-05 0.256D-04-0.791D-04-0.245D-01 0.102D+01
 Coeff:      0.129D-06-0.623D-05 0.256D-04-0.791D-04-0.245D-01 0.102D+01
 Gap=     1.090 Goal=   None    Shift=    0.000
 Gap=     0.707 Goal=   None    Shift=    0.000
 RMSDP=8.66D-10 MaxDP=4.03D-09 DE=-2.84D-14 OVMax= 0.00D+00

 SCF Done:  E(UHF) =  -147.634171441     A.U. after    6 cycles
            NFock=  6  Conv=0.87D-09     -V/T= 2.0113
 <Sx>= 0.0000 <Sy>= 0.0000 <Sz>= 1.0000 <S**2>= 2.0034 S= 1.0011
 <L.S>= 0.000000000000E+00
 KE= 1.459850642931D+02 PE=-4.058374340602D+02 EE= 8.439358397466D+01
 Annihilation of the first spin contaminant:
 S**2 before annihilation     2.0034,   after     2.0000
 Leave Link  502 at Wed Oct 28 10:12:19 2015, MaxMem=    33554432 cpu:               0.1 elap:               0.1
 (Enter /home/gauss/gdvi03p/gdv/l801.exe)
 Range of M.O.s used for correlation:     1    10
 NBasis=    10 NAE=     9 NBE=     7 NFC=     0 NFV=     0
 NROrb=     10 NOA=     9 NOB=     7 NVA=     1 NVB=     3
 Leave Link  801 at Wed Oct 28 10:12:19 2015, MaxMem=    33554432 cpu:               0.0 elap:               0.0
 (Enter /home/gauss/gdvi03p/gdv/l804.exe)
 Open-shell transformation, MDV=    33554432 ITran=3 ISComp=1.
 Unit  1 TFree=          7920 TCopy=        168729.
 Semi-Direct transformation.
 ModeAB=           2 MOrb=             9 LenV=      33433977
 LASXX=         1071 LTotXX=        1071 LenRXX=        1071
 LTotAB=        2916 MaxLAS=        4950 LenRXY=        4950
 NonZer=        6030 LenScr=      785920 LnRSAI=           0
 LnScr1=           0 LExtra=           0 Total=       791941
 MaxDsk=          -1 SrtSym=           F ITran=            3
 DoSDTr:  NPSUse=  1
 JobTyp=1 Pass  1:  I=   1 to   9.
 (rs|ai) integrals will be sorted in core.
 Complete sort for first half transformation.
 First half transformation complete.
 Complete sort for second half transformation.
 Second half transformation complete.
 ModeAB=           2 MOrb=             7 LenV=      33433977
 LASXX=         1176 LTotXX=        1176 LenRXX=        3850
 LTotAB=          28 MaxLAS=        3850 LenRXY=          28
 NonZer=        4690 LenScr=      785920 LnRSAI=           0
 LnScr1=           0 LExtra=           0 Total=       789798
 MaxDsk=          -1 SrtSym=           F ITran=            3
 DoSDTr:  NPSUse=  1
 JobTyp=2 Pass  1:  I=   1 to   7.
 (rs|ai) integrals will be sorted in core.
 Complete sort for first half transformation.
 First half transformation complete.
 Complete sort for second half transformation.
 Second half transformation complete.
 Spin components of T(2) and E(2):
     alpha-alpha T2 =       0.0000000000D+00 E2=      0.0000000000D+00
     alpha-beta  T2 =       0.2194320660D-01 E2=     -0.5187061748D-01
     beta-beta   T2 =       0.2755181491D-01 E2=     -0.4714059023D-01
 ANorm=    0.1024448643D+01
 E2 =    -0.9901120771D-01 EUMP2 =    -0.14773318264908D+03
 (S**2,0)=  0.20034D+01           (S**2,1)=  0.20006D+01
 E(PUHF)=      -0.14763499575D+03        E(PMP2)=      -0.14773366497D+03
 Leave Link  804 at Wed Oct 28 10:12:19 2015, MaxMem=    33554432 cpu:               0.1 elap:               0.1
 (Enter /home/gauss/gdvi03p/gdv/l914.exe)
 UHF ground state
 MDV=    33554432 DFT=F DoStab=F Mixed=F DoRPA=T DoScal=F NonHer=T
 Making orbital integer symmetry assigments:
 FoFJK:  IHMeth= 1 ICntrl=       0 DoSepK=F KAlg= 0 I1Cent=           0 FoldK=F
 IRaf=         0 NMat=       2 IRICut=       1 DoRegI=T DoRafI=F ISym2E= 0 IDoP0=0 IntGTp=1.
 FoFCou: FMM=F IPFlag=           0 FMFlag=      100000 FMFlg1=           0
         NFxFlg=           0 DoJE=F BraDBF=F KetDBF=F FulRan=T
         wScrn=  0.000000 ICntrl=         0 IOpCl=  1 I1Cent=           0 NGrid=           0
         NMat0=    2 NMatS0=      2 NMatT0=    0 NMatD0=    2 NMtDS0=    0 NMtDT0=    0
 Symmetry not used in FoFCou.
    30 initial guesses have been made.
 Convergence on wavefunction:    0.001000000000000
 Davidson Disk Diagonalization:  ConvIn= 1.00D-03 SkipCon=T Conv= 1.00D-03.
 Max sub-space:   200 roots to seek:    30 dimension of matrix:           30
 Iteration     1 Dimension    30 NMult     0 NNew     30
 New state      1 was old state      2
 New state      2 was old state      1
 New state      3 was old state      4
 New state      4 was old state      6
 New state      6 was old state      3
 New state      9 was old state     10
 New state     10 was old state      9
 New state     11 was old state     14
 Excitation Energies [eV] at current iteration:
 Root      1 :    -3.071700302254442
 Root      2 :    -3.071700302254187
 Root      3 :     2.903188332259128
 Root      4 :     6.501279919852302
 Root      5 :     6.501279919852669
 Root      6 :     7.883065779893512
 Root      7 :    12.845012466536580
 Root      8 :    12.845012466536720
 Root      9 :    14.849852605892600
 Root     10 :    14.849852605892630
 Root     11 :    16.590631348013390
 Root     12 :    18.404352069044960
 Root     13 :    18.404352069045030
 Root     14 :    21.026471905464890
 Root     15 :    21.026471905465220
 Root     16 :    27.227318725666400
 Root     17 :    29.394560630574830
 Root     18 :    32.138740710843020
 Root     19 :    32.138740710843460
 Root     20 :    34.227130967552110
 Root     21 :    41.785533156309030
 Root     22 :    47.674089904286390
 Root     23 :   541.697478189241100
 Root     24 :   541.697478189241500
 Root     25 :   541.714774546408800
 Root     26 :   541.714774546409100
 Root     27 :   550.224618777662000
 Root     28 :   550.253137542892500
 Root     29 :   552.321760238159900
 Root     30 :   552.362332724597600
 Convergence achieved for final wavefunctions.
 ***********************************************************************
 Excited states from <AA,BB:AA,BB> singles matrix:
 ***********************************************************************
 
 ExtSpn:  IState=     1 X2= 1.295 Y2= 0.295 X2-Y2-1= 0.00D+00
          S2Grnd=  2.003 Ra=  0.000 Rb=  0.000 T=  0.000 S2Ext=  0.000 S2=  2.003
 ExtSpn:  IState=     2 X2= 1.295 Y2= 0.295 X2-Y2-1=-1.11D-16
          S2Grnd=  2.003 Ra=  0.000 Rb=  0.000 T=  0.000 S2Ext=  0.000 S2=  2.003
 ExtSpn:  IState=     3 X2= 1.341 Y2= 0.341 X2-Y2-1= 0.00D+00
          S2Grnd=  2.003 Ra=  0.000 Rb=  0.000 T=  0.000 S2Ext=  0.000 S2=  2.003
 ExtSpn:  IState=     4 X2= 1.035 Y2= 0.035 X2-Y2-1= 2.22D-16
          S2Grnd=  2.003 Ra=  0.001 Rb= -0.034 T= -0.005 S2Ext= -0.038 S2=  1.966
 ExtSpn:  IState=     5 X2= 1.035 Y2= 0.035 X2-Y2-1= 4.44D-16
          S2Grnd=  2.003 Ra=  0.001 Rb= -0.034 T= -0.005 S2Ext= -0.038 S2=  1.966
 ExtSpn:  IState=     6 X2= 1.041 Y2= 0.041 X2-Y2-1= 0.00D+00
          S2Grnd=  2.003 Ra=  0.100 Rb=  0.027 T= -0.102 S2Ext=  0.025 S2=  2.028
 ExtSpn:  IState=     7 X2= 1.001 Y2= 0.001 X2-Y2-1= 0.00D+00
          S2Grnd=  2.003 Ra= -0.003 Rb=  0.000 T= -0.003 S2Ext= -0.006 S2=  1.997
 ExtSpn:  IState=     8 X2= 1.001 Y2= 0.001 X2-Y2-1=-2.22D-16
          S2Grnd=  2.003 Ra= -0.003 Rb=  0.000 T= -0.003 S2Ext= -0.006 S2=  1.997
 ExtSpn:  IState=     9 X2= 1.037 Y2= 0.037 X2-Y2-1= 2.22D-16
          S2Grnd=  2.003 Ra=  0.027 Rb=  1.003 T=  0.333 S2Ext=  1.363 S2=  3.367
 ExtSpn:  IState=    10 X2= 1.037 Y2= 0.037 X2-Y2-1= 4.44D-16
          S2Grnd=  2.003 Ra=  0.027 Rb=  1.003 T=  0.333 S2Ext=  1.363 S2=  3.367
 ExtSpn:  IState=    11 X2= 1.022 Y2= 0.022 X2-Y2-1= 2.22D-16
          S2Grnd=  2.003 Ra=  0.472 Rb=  0.513 T=  0.986 S2Ext=  1.972 S2=  3.975
 ExtSpn:  IState=    12 X2= 1.001 Y2= 0.001 X2-Y2-1= 0.00D+00
          S2Grnd=  2.003 Ra=  0.000 Rb= -0.003 T= -0.003 S2Ext= -0.006 S2=  1.997
 ExtSpn:  IState=    13 X2= 1.001 Y2= 0.001 X2-Y2-1= 0.00D+00
          S2Grnd=  2.003 Ra=  0.000 Rb= -0.003 T= -0.003 S2Ext= -0.006 S2=  1.997
 ExtSpn:  IState=    14 X2= 1.001 Y2= 0.001 X2-Y2-1= 0.00D+00
          S2Grnd=  2.003 Ra=  0.964 Rb=  0.028 T= -0.331 S2Ext=  0.661 S2=  2.664
 ExtSpn:  IState=    15 X2= 1.001 Y2= 0.001 X2-Y2-1= 4.44D-16
          S2Grnd=  2.003 Ra=  0.964 Rb=  0.028 T= -0.331 S2Ext=  0.661 S2=  2.664
 ExtSpn:  IState=    16 X2= 1.055 Y2= 0.055 X2-Y2-1=-2.22D-16
          S2Grnd=  2.003 Ra=  0.426 Rb=  0.461 T= -0.886 S2Ext=  0.000 S2=  2.004
 ExtSpn:  IState=    17 X2= 1.001 Y2= 0.001 X2-Y2-1=-3.33D-16
          S2Grnd=  2.003 Ra=  0.207 Rb=  0.786 T=  0.810 S2Ext=  1.803 S2=  3.807
 ExtSpn:  IState=    18 X2= 1.002 Y2= 0.002 X2-Y2-1= 2.22D-16
          S2Grnd=  2.003 Ra=  0.005 Rb= -0.001 T=  0.003 S2Ext=  0.007 S2=  2.010
 ExtSpn:  IState=    19 X2= 1.002 Y2= 0.002 X2-Y2-1= 2.22D-16
          S2Grnd=  2.003 Ra=  0.005 Rb= -0.001 T=  0.003 S2Ext=  0.007 S2=  2.010
 ExtSpn:  IState=    20 X2= 1.001 Y2= 0.001 X2-Y2-1= 2.22D-16
          S2Grnd=  2.003 Ra=  0.786 Rb=  0.207 T= -0.810 S2Ext=  0.183 S2=  2.186
 ExtSpn:  IState=    21 X2= 1.002 Y2= 0.002 X2-Y2-1= 2.22D-16
          S2Grnd=  2.003 Ra=  0.389 Rb=  0.607 T=  0.968 S2Ext=  1.964 S2=  3.968
 ExtSpn:  IState=    22 X2= 1.009 Y2= 0.009 X2-Y2-1=-1.11D-16
          S2Grnd=  2.003 Ra=  0.607 Rb=  0.385 T= -0.966 S2Ext=  0.025 S2=  2.029
 ExtSpn:  IState=    23 X2= 1.000 Y2= 0.000 X2-Y2-1=-2.22D-16
          S2Grnd=  2.003 Ra=  0.000 Rb=  0.000 T=  0.000 S2Ext=  0.000 S2=  2.003
 ExtSpn:  IState=    24 X2= 1.000 Y2= 0.000 X2-Y2-1= 2.22D-16
          S2Grnd=  2.003 Ra=  0.000 Rb=  0.000 T=  0.000 S2Ext=  0.000 S2=  2.003
 ExtSpn:  IState=    25 X2= 1.000 Y2= 0.000 X2-Y2-1= 4.44D-16
          S2Grnd=  2.003 Ra=  0.000 Rb=  0.000 T=  0.000 S2Ext=  0.000 S2=  2.003
 ExtSpn:  IState=    26 X2= 1.000 Y2= 0.000 X2-Y2-1= 4.44D-16
          S2Grnd=  2.003 Ra=  0.000 Rb=  0.000 T=  0.000 S2Ext=  0.000 S2=  2.003
 ExtSpn:  IState=    27 X2= 1.000 Y2= 0.000 X2-Y2-1= 0.00D+00
          S2Grnd=  2.003 Ra=  0.835 Rb=  0.161 T=  0.736 S2Ext=  1.732 S2=  3.736
 ExtSpn:  IState=    28 X2= 1.000 Y2= 0.000 X2-Y2-1=-1.11D-16
          S2Grnd=  2.003 Ra=  0.827 Rb=  0.170 T=  0.751 S2Ext=  1.747 S2=  3.751
 ExtSpn:  IState=    29 X2= 1.000 Y2= 0.000 X2-Y2-1=-2.22D-16
          S2Grnd=  2.003 Ra=  0.161 Rb=  0.835 T= -0.736 S2Ext=  0.261 S2=  2.264
 ExtSpn:  IState=    30 X2= 1.000 Y2= 0.000 X2-Y2-1= 2.22D-16
          S2Grnd=  2.003 Ra=  0.170 Rb=  0.827 T= -0.751 S2Ext=  0.246 S2=  2.249
 1PDM for each excited state written to RWF  633
 Ground to excited state transition densities written to RWF  633
 Ground to excited state transition electric dipole moments (Au):
       state          X           Y           Z        Dip. S.      Osc.
         1         0.0000      0.0000      0.0000      0.0000      0.0000
         2         0.0000      0.0000      0.0000      0.0000      0.0000
         3         0.0000      0.0000      0.0000      0.0000      0.0000
         4         0.0000      0.0000      0.0000      0.0000      0.0000
         5         0.0000      0.0000      0.0000      0.0000      0.0000
         6         0.0000      0.0000     -0.7505      0.5633      0.1088
         7        -0.0125      0.0633      0.0000      0.0042      0.0013
         8         0.0633      0.0125      0.0000      0.0042      0.0013
         9         0.0000      0.0000      0.0000      0.0000      0.0000
        10         0.0000      0.0000      0.0000      0.0000      0.0000
        11         0.0000      0.0000      0.1393      0.0194      0.0079
        12        -0.1886     -0.5843      0.0000      0.3770      0.1700
 Ground to excited state transition velocity dipole moments (Au):
       state          X           Y           Z        Dip. S.      Osc.
         1         0.0000      0.0000      0.0000      0.0000      0.0000
         2         0.0000      0.0000      0.0000      0.0000      0.0000
         3         0.0000      0.0000      0.0000      0.0000      0.0000
         4         0.0000      0.0000      0.0000      0.0000      0.0000
         5         0.0000      0.0000      0.0000      0.0000      0.0000
         6         0.0000      0.0000      0.0577      0.0033      0.0077
         7        -0.0101      0.0511      0.0000      0.0027      0.0038
         8         0.0511      0.0101      0.0000      0.0027      0.0038
         9         0.0000      0.0000      0.0000      0.0000      0.0000
        10         0.0000      0.0000      0.0000      0.0000      0.0000
        11         0.0000      0.0000     -0.0137      0.0002      0.0002
        12         0.1147      0.3553      0.0000      0.1394      0.1374
 Ground to excited state transition magnetic dipole moments (Au):
       state          X           Y           Z
         1         0.0000      0.0000      0.0000
         2         0.0000      0.0000      0.0000
         3         0.0000      0.0000      0.0000
         4        -1.2980      0.1692      0.0000
         5         0.1692      1.2980      0.0000
         6         0.0000      0.0000      0.0000
         7         0.0000      0.0000      0.0000
         8         0.0000      0.0000      0.0000
         9        -0.0116     -0.7497      0.0000
        10         0.7497     -0.0116      0.0000
        11         0.0000      0.0000      0.0000
        12         0.0000      0.0000      0.0000
 Ground to excited state transition velocity quadrupole moments (Au):
       state          XX          YY          ZZ          XY          XZ          YZ
         1         0.0000      0.0000      0.0000      0.0000      0.0000      0.0000
         2         0.0000      0.0000      0.0000      0.0000      0.0000      0.0000
         3         0.0000      0.0000      0.0000      0.0000      0.0000      0.0000
         4         0.0000      0.0000      0.0000      0.0000      0.0145      0.1114
         5         0.0000      0.0000      0.0000      0.0000      0.1114     -0.0145
         6         0.0000      0.0000      0.0000      0.0000      0.0000      0.0000
         7         0.0000      0.0000      0.0000      0.0000      0.0000      0.0000
         8         0.0000      0.0000      0.0000      0.0000      0.0000      0.0000
         9         0.0000      0.0000      0.0000      0.0000     -0.0125      0.0002
        10         0.0000      0.0000      0.0000      0.0000     -0.0002     -0.0125
        11         0.0000      0.0000      0.0000      0.0000      0.0000      0.0000
        12         0.0000      0.0000      0.0000      0.0000      0.0000      0.0000
 <0|del|b> * <b|rxdel|0> + <0|del|b> * <b|delr+rdel|0>
 Rotatory Strengths (R) in cgs (10**-40 erg-esu-cm/Gauss)
       state          XX          YY          ZZ    R(velocity)    E-M Angle
         1         0.0000      0.0000      0.0000      0.0000       90.00
         2         0.0000      0.0000      0.0000      0.0000       90.00
         3         0.0000      0.0000      0.0000      0.0000       90.00
         4         0.0000      0.0000      0.0000      0.0000       90.00
         5         0.0000      0.0000      0.0000      0.0000       90.00
         6         0.0000      0.0000      0.0000      0.0000       90.00
         7         0.0000      0.0000      0.0000      0.0000       90.00
         8         0.0000      0.0000      0.0000      0.0000       90.00
         9         0.0000      0.0000      0.0000      0.0000       90.00
        10         0.0000      0.0000      0.0000      0.0000       90.00
        11         0.0000      0.0000      0.0000      0.0000       90.00
        12         0.0000      0.0000      0.0000      0.0000       90.00
 1/2[<0|r|b>*<b|rxdel|0> + (<0|rxdel|b>*<b|r|0>)*]
 Rotatory Strengths (R) in cgs (10**-40 erg-esu-cm/Gauss)
       state          XX          YY          ZZ     R(length)
         1         0.0000      0.0000      0.0000      0.0000
         2         0.0000      0.0000      0.0000      0.0000
         3         0.0000      0.0000      0.0000      0.0000
         4         0.0000      0.0000      0.0000      0.0000
         5         0.0000      0.0000      0.0000      0.0000
         6         0.0000      0.0000      0.0000      0.0000
         7         0.0000      0.0000      0.0000      0.0000
         8         0.0000      0.0000      0.0000      0.0000
         9         0.0000      0.0000      0.0000      0.0000
        10         0.0000      0.0000      0.0000      0.0000
        11         0.0000      0.0000      0.0000      0.0000
        12         0.0000      0.0000      0.0000      0.0000
  1/2[<0|del|b>*<b|r|0> + (<0|r|b>*<b|del|0>)*] (Au)
       state          X           Y           Z        Dip. S.   Osc.(frdel)
         1         0.0000      0.0000      0.0000      0.0000      0.0000
         2         0.0000      0.0000      0.0000      0.0000      0.0000
         3         0.0000      0.0000      0.0000      0.0000      0.0000
         4         0.0000      0.0000      0.0000      0.0000      0.0000
         5         0.0000      0.0000      0.0000      0.0000      0.0000
         6         0.0000      0.0000     -0.0433      0.0433      0.0289
         7         0.0001      0.0032      0.0000     -0.0034     -0.0022
         8         0.0032      0.0001      0.0000     -0.0034     -0.0022
         9         0.0000      0.0000      0.0000      0.0000      0.0000
        10         0.0000      0.0000      0.0000      0.0000      0.0000
        11         0.0000      0.0000     -0.0019      0.0019      0.0013
        12        -0.0216     -0.2076      0.0000      0.2292      0.1528

 Excitation energies and oscillator strengths:
 
 LASSW sees vector with all elements less than  0.100000000000E-03
 LASSW sees vector with all elements less than  0.100000000000E-03
 LASSW sees vector with all elements less than  0.100000000000E-03
 LASSW sees vector with all elements less than  0.100000000000E-03
 Excited state symmetry could not be determined.
 Excited State   1:  3.002-?Sym    -3.0717 eV    -403.63 nm  f=-0.0000  <S**2>=2.003
      6B ->  8B       -0.41927
      6B ->  9B       -0.68686
      7B ->  8B        0.68686
      7B ->  9B       -0.41927
      6B <-  8B       -0.20015
      6B <-  9B       -0.32789
      7B <-  8B        0.32789
      7B <-  9B       -0.20015
 This state for optimization and/or second-order correction.
 Total Energy, E(TD-HF/TD-KS) =  -147.747054350    
 Copying the excited state density for this state as the 1-particle RhoCI density.
 
 LASSW sees vector with all elements less than  0.100000000000E-03
 LASSW sees vector with all elements less than  0.100000000000E-03
 LASSW sees vector with all elements less than  0.100000000000E-03
 LASSW sees vector with all elements less than  0.100000000000E-03
 Excited state symmetry could not be determined.
 Excited State   2:  3.002-?Sym    -3.0717 eV    -403.63 nm  f=-0.0000  <S**2>=2.003
      6B ->  8B        0.68686
      6B ->  9B       -0.41927
      7B ->  8B        0.41927
      7B ->  9B        0.68686
      6B <-  8B        0.32789
      6B <-  9B       -0.20015
      7B <-  8B        0.20015
      7B <-  9B        0.32789
 
 LASSW sees vector with all elements less than  0.100000000000E-03
 LASSW sees vector with all elements less than  0.100000000000E-03
 LASSW sees vector with all elements less than  0.100000000000E-03
 LASSW sees vector with all elements less than  0.100000000000E-03
 Excited state symmetry could not be determined.
 Excited State   3:  3.002-?Sym    2.9032 eV  427.06 nm  f=0.0000  <S**2>=2.003
      6B ->  8B        0.70756
      6B ->  9B       -0.41231
      7B ->  8B       -0.41231
      7B ->  9B       -0.70756
      6B <-  8B       -0.35692
      6B <-  9B        0.20798
      7B <-  8B        0.20798
      7B <-  9B        0.35692
 
 Excited state symmetry could not be determined.
 Excited State   4:  2.977-?Sym    6.5013 eV  190.71 nm  f=0.0000  <S**2>=1.966
      5B ->  8B        0.99319
      5B ->  9B        0.20305
      6B <- 10B        0.12430
      7B <- 10B        0.13910
 
 Excited state symmetry could not be determined.
 Excited State   5:  2.977-?Sym    6.5013 eV  190.71 nm  f=0.0000  <S**2>=1.966
      5B ->  8B       -0.20305
      5B ->  9B        0.99319
      6B <- 10B        0.13910
      7B <- 10B       -0.12430
 
 Excited state symmetry could not be determined.
 Excited State   6:  3.019-?Sym    7.8831 eV  157.28 nm  f=0.1088  <S**2>=2.028
      7A -> 10A       -0.35037
      5B -> 10B       -0.19117
      6B ->  8B        0.33292
      6B ->  9B        0.57132
      7B ->  8B        0.57132
      7B ->  9B       -0.33292
      7A <- 10A       -0.16242
 
 Excited state symmetry could not be determined.
 Excited State   7:  2.998-?Sym   12.8450 eV   96.52 nm  f=0.0013  <S**2>=1.997
      8A -> 10A        0.52101
      9A -> 10A        0.84418
      4B ->  8B        0.12725
 
 Excited state symmetry could not be determined.
 Excited State   8:  2.998-?Sym   12.8450 eV   96.52 nm  f=0.0013  <S**2>=1.997
      8A -> 10A        0.84418
      9A -> 10A       -0.52101
      4B ->  9B        0.12725
 
 Excited state symmetry could not be determined.
 Excited State   9:  3.803-?Sym   14.8499 eV   83.49 nm  f=0.0000  <S**2>=3.367
      6A -> 10A       -0.15712
      6B -> 10B        0.81947
      7B -> 10B       -0.57905
      5B <-  9B        0.18158
 
 Excited state symmetry could not be determined.
 Excited State  10:  3.803-?Sym   14.8499 eV   83.49 nm  f=0.0000  <S**2>=3.367
      5A -> 10A       -0.15712
      6B -> 10B        0.57905
      7B -> 10B        0.81947
      5B <-  8B        0.18158
 
 Excited state symmetry could not be determined.
 Excited State  11:  4.111-?Sym   16.5906 eV   74.73 nm  f=0.0079  <S**2>=3.975
      7A -> 10A       -0.69135
      5B -> 10B        0.72029
      5B <- 10B        0.10460
 
 Excited state symmetry could not be determined.
 Excited State  12:  2.998-?Sym   18.4044 eV   67.37 nm  f=0.1700  <S**2>=1.997
      8A -> 10A       -0.11182
      4B ->  8B        0.91964
      4B ->  9B        0.37194
 SavETr:  write IOETrn=   770 NScale= 10 NData=  16 NLR=1 NState=   30 LETran=     550.
 Leave Link  914 at Wed Oct 28 10:12:20 2015, MaxMem=    33554432 cpu:               0.1 elap:               0.1
 (Enter /home/gauss/gdvi03p/gdv/l601.exe)
 Copying SCF densities to generalized density rwf, IOpCl= 1 IROHF=0.

 **********************************************************************

            Population analysis using the SCF density.

 **********************************************************************

 Alpha  occ. eigenvalues --  -20.43921 -20.43810  -1.61162  -1.09224  -0.71156
 Alpha  occ. eigenvalues --   -0.71156  -0.60490  -0.41547  -0.41547
 Alpha virt. eigenvalues --    0.67486
  Beta  occ. eigenvalues --  -20.40773 -20.40755  -1.48030  -0.89949  -0.55251
  Beta  occ. eigenvalues --   -0.43875  -0.43875
  Beta virt. eigenvalues --    0.26788   0.26788   0.76406
     Alpha Molecular Orbital Coefficients:
                           1         2         3         4         5
                           O         O         O         O         O
     Eigenvalues --   -20.43921 -20.43810  -1.61162  -1.09224  -0.71156
   1 1   O  1S          0.70273   0.70351  -0.17122  -0.18878   0.00000
   2        2S          0.02062   0.01332   0.58406   0.79165   0.00000
   3        2PX         0.00000   0.00000   0.00000   0.00000   0.22698
   4        2PY         0.00000   0.00000   0.00000   0.00000   0.61945
   5        2PZ        -0.00580   0.00000  -0.15548   0.12937   0.00000
   6 2   O  1S         -0.70273   0.70351  -0.17122   0.18878   0.00000
   7        2S         -0.02062   0.01332   0.58406  -0.79165   0.00000
   8        2PX         0.00000   0.00000   0.00000   0.00000   0.22698
   9        2PY         0.00000   0.00000   0.00000   0.00000   0.61945
  10        2PZ        -0.00580   0.00000   0.15548   0.12937   0.00000
                           6         7         8         9        10
                           O         O         O         O         V
     Eigenvalues --    -0.71156  -0.60490  -0.41547  -0.41547   0.67486
   1 1   O  1S          0.00000  -0.06164   0.00000   0.00000   0.08821
   2        2S          0.00000   0.31408   0.00000   0.00000  -0.54661
   3        2PX         0.61945   0.00000   0.56189  -0.52123   0.00000
   4        2PY        -0.22698   0.00000   0.52123   0.56189   0.00000
   5        2PZ         0.00000   0.61943   0.00000   0.00000   0.94283
   6 2   O  1S          0.00000  -0.06164   0.00000   0.00000  -0.08821
   7        2S          0.00000   0.31408   0.00000   0.00000   0.54661
   8        2PX         0.61945   0.00000  -0.56189   0.52123   0.00000
   9        2PY        -0.22698   0.00000  -0.52123  -0.56189   0.00000
  10        2PZ         0.00000  -0.61943   0.00000   0.00000   0.94283
     Beta Molecular Orbital Coefficients:
                           1         2         3         4         5
                           O         O         O         O         O
     Eigenvalues --   -20.40773 -20.40755  -1.48030  -0.89949  -0.55251
   1 1   O  1S          0.70321   0.70383  -0.16704  -0.18186  -0.06897
   2        2S          0.01847   0.01214   0.56893   0.75842   0.34076
   3        2PX         0.00000   0.00000   0.00000   0.00000   0.00000
   4        2PY         0.00000   0.00000   0.00000   0.00000   0.00000
   5        2PZ        -0.00525  -0.00015  -0.18394   0.18419   0.61158
   6 2   O  1S         -0.70321   0.70383  -0.16704   0.18186  -0.06897
   7        2S         -0.01847   0.01214   0.56893  -0.75842   0.34076
   8        2PX         0.00000   0.00000   0.00000   0.00000   0.00000
   9        2PY         0.00000   0.00000   0.00000   0.00000   0.00000
  10        2PZ        -0.00525   0.00015   0.18394   0.18419  -0.61158
                           6         7         8         9        10
                           O         O         V         V         V
     Eigenvalues --    -0.43875  -0.43875   0.26788   0.26788   0.76406
   1 1   O  1S          0.00000   0.00000   0.00000   0.00000   0.09838
   2        2S          0.00000   0.00000   0.00000   0.00000  -0.59192
   3        2PX         0.54462  -0.37233  -0.05518   0.76443   0.00000
   4        2PY         0.37233   0.54462   0.76443   0.05518   0.00000
   5        2PZ         0.00000   0.00000   0.00000   0.00000   0.93368
   6 2   O  1S          0.00000   0.00000   0.00000   0.00000  -0.09838
   7        2S          0.00000   0.00000   0.00000   0.00000   0.59192
   8        2PX         0.54462  -0.37233   0.05518  -0.76443   0.00000
   9        2PY         0.37233   0.54462  -0.76443  -0.05518   0.00000
  10        2PZ         0.00000   0.00000   0.00000   0.00000   0.93368
     Alpha Density Matrix:
                           1         2         3         4         5
   1 1   O  1S          1.05751
   2        2S         -0.24495   1.06708
   3        2PX         0.00000   0.00000   1.02264
   4        2PY         0.00000   0.00000   0.00000   1.02264
   5        2PZ        -0.04006   0.20604   0.00000   0.00000   0.42464
   6 2   O  1S         -0.00143   0.02496   0.00000   0.00000   0.01694
   7        2S          0.02496  -0.18718   0.00000   0.00000   0.00145
   8        2PX         0.00000   0.00000  -0.15217   0.00000   0.00000
   9        2PY         0.00000   0.00000   0.00000  -0.15217   0.00000
  10        2PZ        -0.01694  -0.00145   0.00000   0.00000  -0.39110
                           6         7         8         9        10
   6 2   O  1S          1.05751
   7        2S         -0.24495   1.06708
   8        2PX         0.00000   0.00000   1.02264
   9        2PY         0.00000   0.00000   0.00000   1.02264
  10        2PZ         0.04006  -0.20604   0.00000   0.00000   0.42464
     Beta Density Matrix:
                           1         2         3         4         5
   1 1   O  1S          1.05561
   2        2S         -0.23493   1.01549
   3        2PX         0.00000   0.00000   0.43524
   4        2PY         0.00000   0.00000   0.00000   0.43524
   5        2PZ        -0.04875   0.24334   0.00000   0.00000   0.44182
   6 2   O  1S          0.00047   0.01495   0.00000   0.00000   0.02562
   7        2S          0.01495  -0.13559   0.00000   0.00000  -0.03585
   8        2PX         0.00000   0.00000   0.43524   0.00000   0.00000
   9        2PY         0.00000   0.00000   0.00000   0.43524   0.00000
  10        2PZ        -0.02562   0.03585   0.00000   0.00000  -0.37391
                           6         7         8         9        10
   6 2   O  1S          1.05561
   7        2S         -0.23493   1.01549
   8        2PX         0.00000   0.00000   0.43524
   9        2PY         0.00000   0.00000   0.00000   0.43524
  10        2PZ         0.04875  -0.24334   0.00000   0.00000   0.44182
    Full Mulliken population analysis:
                           1         2         3         4         5
   1 1   O  1S          2.11312
   2        2S         -0.11359   2.08257
   3        2PX         0.00000   0.00000   1.45788
   4        2PY         0.00000   0.00000   0.00000   1.45788
   5        2PZ         0.00000   0.00000   0.00000   0.00000   0.86646
   6 2   O  1S          0.00000   0.00088   0.00000   0.00000  -0.00160
   7        2S          0.00088  -0.08909   0.00000   0.00000   0.01091
   8        2PX         0.00000   0.00000   0.04212   0.00000   0.00000
   9        2PY         0.00000   0.00000   0.00000   0.04212   0.00000
  10        2PZ        -0.00160   0.01091   0.00000   0.00000   0.23373
                           6         7         8         9        10
   6 2   O  1S          2.11312
   7        2S         -0.11359   2.08257
   8        2PX         0.00000   0.00000   1.45788
   9        2PY         0.00000   0.00000   0.00000   1.45788
  10        2PZ         0.00000   0.00000   0.00000   0.00000   0.86646
     Gross orbital populations:
                         Total     Alpha     Beta      Spin
   1 1   O  1S          1.99882   0.99945   0.99937   0.00007
   2        2S          1.89168   0.95753   0.93416   0.02337
   3        2PX         1.50000   1.00000   0.50000   0.50000
   4        2PY         1.50000   1.00000   0.50000   0.50000
   5        2PZ         1.10950   0.54303   0.56647  -0.02344
   6 2   O  1S          1.99882   0.99945   0.99937   0.00007
   7        2S          1.89168   0.95753   0.93416   0.02337
   8        2PX         1.50000   1.00000   0.50000   0.50000
   9        2PY         1.50000   1.00000   0.50000   0.50000
  10        2PZ         1.10950   0.54303   0.56647  -0.02344
          Condensed to atoms (all electrons):
               1          2
     1  O    7.750724   0.249276
     2  O    0.249276   7.750724
          Atomic-Atomic Spin Densities.
               1          2
     1  O    1.206370  -0.206370
     2  O   -0.206370   1.206370
 Mulliken charges and spin densities:
               1          2
     1  O    0.000000   1.000000
     2  O    0.000000   1.000000
 Sum of Mulliken charges =   0.00000   2.00000
 Mulliken charges and spin densities with hydrogens summed into heavy atoms:
               1          2
     1  O    0.000000   1.000000
     2  O    0.000000   1.000000
 Electronic spatial extent (au):  <R**2>=             40.9779
 Charge=              0.0000 electrons
 Dipole moment (field-independent basis, Debye):
    X=              0.0000    Y=              0.0000    Z=              0.0000  Tot=              0.0000
 Quadrupole moment (field-independent basis, Debye-Ang):
   XX=             -8.4750   YY=             -8.4750   ZZ=             -9.7028
   XY=              0.0000   XZ=              0.0000   YZ=              0.0000
 Traceless Quadrupole moment (field-independent basis, Debye-Ang):
   XX=              0.4093   YY=              0.4093   ZZ=             -0.8186
   XY=              0.0000   XZ=              0.0000   YZ=              0.0000
 Octapole moment (field-independent basis, Debye-Ang**2):
  XXX=              0.0000  YYY=              0.0000  ZZZ=              0.0000  XYY=              0.0000
  XXY=              0.0000  XXZ=              0.0000  XZZ=              0.0000  YZZ=              0.0000
  YYZ=              0.0000  XYZ=              0.0000
 Hexadecapole moment (field-independent basis, Debye-Ang**3):
 XXXX=             -3.9630 YYYY=             -3.9630 ZZZZ=            -23.6695 XXXY=              0.0000
 XXXZ=              0.0000 YYYX=              0.0000 YYYZ=              0.0000 ZZZX=              0.0000
 ZZZY=              0.0000 XXYY=             -1.3210 XXZZ=             -4.5963 YYZZ=             -4.5963
 XXYZ=              0.0000 YYXZ=              0.0000 ZZXY=              0.0000
 N-N= 2.782461435104D+01 E-N=-4.058374340563D+02  KE= 1.459850642931D+02
 Orbital energies and kinetic energies (alpha):
                                 1                 2
   1         O               -20.439206         28.637517
   2         O               -20.438100         28.702101
   3         O                -1.611623          2.534565
   4         O                -1.092241          3.278827
   5         O                -0.711565          2.252565
   6         O                -0.711565          2.252565
   7         O                -0.604897          2.482632
   8         O                -0.415471          2.901449
   9         O                -0.415471          2.901449
  10         V                 0.674861          4.529548
 Orbital energies and kinetic energies (beta):
                                 1                 2
   1         O               -20.407727         28.676900
   2         O               -20.407554         28.729234
   3         O                -1.480300          2.483751
   4         O                -0.899485          3.140066
   5         O                -0.552507          2.506312
   6         O                -0.438745          2.252565
   7         O                -0.438745          2.252565
   8         V                 0.267880          2.901449
   9         V                 0.267880          2.901449
  10         V                 0.764062          4.628927
 Total kinetic energy from orbitals= 1.459850642931D+02
 Leave Link  601 at Wed Oct 28 10:12:20 2015, MaxMem=    33554432 cpu:               0.0 elap:               0.0
 (Enter /home/gauss/gdvi03p/gdv/l9999.exe)
 Unable to Open any file for archive entry.
 1\1\GINC-MEDUSA\SP\UTD-Full\STO-3G\O2(3)\PLESTRAN\28-Oct-2015\0\\#p uh
 f/sto-3g gfinput pop=full nosymm td(full,nstates=12)\\O2 STO-3G\\0,3\O
 ,0,0.,0.,0.608586\O,0,0.,0.,-0.608586\\Version=ES64L-GDVRevI.03+\HF=-1
 47.6341714\MP2=-147.7331826\PUHF=-147.6349958\PMP2-0=-147.733665\EFC=0
 .\S2=2.003411\S2-1=2.000581\S2A=2.\RMSD=8.659e-10\PG=D*H [C*(O1.O1)]\\
 @
 The archive entry for this job was punched.


 MISERY NO LONGER LOVES COMPANY.  NOWADAYS IT INSISTS ON IT.

                                              -- BAKER'S LAW
 Job cpu time:       0 days  0 hours  0 minutes  0.9 seconds.
 Elapsed time:       0 days  0 hours  0 minutes  0.6 seconds.
 File lengths (MBytes):  RWF=     12 Int=      0 D2E=      0 Chk=      1 Scr=      1
 Normal termination of Gaussian DV at Wed Oct 28 10:12:20 2015.
