 Entering Gaussian System, Link 0=gdv
 Input=O2_sto3g_ROHF.com
 Output=O2_sto3g_ROHF.log
 Initial command:
 /home/gauss/gdvi01p/gdv/l1.exe "/home/GauScr/Gau-363.inp" -scrdir="/home/GauScr/"
 Entering Link 1 = /home/gauss/gdvi01p/gdv/l1.exe PID=       364.
  
 Copyright (c) 1988,1990,1992,1993,1995,1998,2003,2009,2014,
            Gaussian, Inc.  All Rights Reserved.
  
 This is the private, development version of
 the Gaussian(R) DV system of programs. It is based on
 the Gaussian(R) 09 system (copyright 2009, Gaussian, Inc.),
 the Gaussian(R) 03 system (copyright 2003, Gaussian, Inc.),
 the Gaussian(R) 98 system (copyright 1998, Gaussian, Inc.),
 the Gaussian(R) 94 system (copyright 1995, Gaussian, Inc.),
 the Gaussian 92(TM) system (copyright 1992, Gaussian, Inc.),
 the Gaussian 90(TM) system (copyright 1990, Gaussian, Inc.),
 the Gaussian 88(TM) system (copyright 1988, Gaussian, Inc.),
 the Gaussian 86(TM) system (copyright 1986, Carnegie Mellon
 University), and the Gaussian 82(TM) system (copyright 1983,
 Carnegie Mellon University). Gaussian is a federally registered
 trademark of Gaussian, Inc.
  
 This software contains proprietary and confidential information,
 including trade secrets, belonging to Gaussian, Inc.
  
 This software is provided under written license and may be
 used, copied, transmitted, or stored only in accord with that
 written license.
  
 The following legend is applicable only to US Government
 contracts under FAR:
  
                    RESTRICTED RIGHTS LEGEND
  
 Use, reproduction and disclosure by the US Government is
 subject to restrictions as set forth in subparagraphs (a)
 and (c) of the Commercial Computer Software - Restricted
 Rights clause in FAR 52.227-19.
  
 Gaussian, Inc.
 340 Quinnipiac St., Bldg. 40, Wallingford CT 06492
  
  
 ---------------------------------------------------------------
 Warning -- This program may not be used in any manner that
 competes with the business of Gaussian, Inc. or will provide
 assistance to any competitor of Gaussian, Inc.  The licensee
 of this program is prohibited from giving any competitor of
 Gaussian, Inc. access to this program.  By using this program,
 the user acknowledges that Gaussian, Inc. is engaged in the
 business of creating and licensing software in the field of
 computational chemistry and represents and warrants to the
 licensee that it is not a competitor of Gaussian, Inc. and that
 it will not use this program in any manner prohibited above.
 ---------------------------------------------------------------
  

 Cite this work as:
 Gaussian Development Version, Revision I.01+,
 M. J. Frisch, G. W. Trucks, H. B. Schlegel, G. E. Scuseria, 
 M. A. Robb, J. R. Cheeseman, G. Scalmani, V. Barone, B. Mennucci, 
 G. A. Petersson, H. Nakatsuji, M. Caricato, X. Li, H. P. Hratchian, 
 A. F. Izmaylov, J. Bloino, B. G. Janesko, F. Lipparini, G. Zheng, 
 J. L. Sonnenberg, W. Liang, M. Hada, M. Ehara, K. Toyota, R. Fukuda, 
 J. Hasegawa, M. Ishida, T. Nakajima, Y. Honda, O. Kitao, H. Nakai, 
 T. Vreven, J. A. Montgomery, Jr., J. E. Peralta, F. Ogliaro, 
 M. Bearpark, J. J. Heyd, E. Brothers, K. N. Kudin, V. N. Staroverov, 
 T. Keith, R. Kobayashi, J. Normand, K. Raghavachari, A. Rendell, 
 J. C. Burant, S. S. Iyengar, J. Tomasi, M. Cossi, N. Rega, 
 J. M. Millam, M. Klene, J. E. Knox, J. B. Cross, V. Bakken, 
 C. Adamo, J. Jaramillo, R. Gomperts, R. E. Stratmann, O. Yazyev, 
 A. J. Austin, R. Cammi, C. Pomelli, J. W. Ochterski, R. L. Martin, 
 K. Morokuma, V. G. Zakrzewski, G. A. Voth, P. Salvador, 
 J. J. Dannenberg, S. Dapprich, P. V. Parandekar, N. J. Mayhall, 
 A. D. Daniels, O. Farkas, J. B. Foresman, J. V. Ortiz, 
 J. Cioslowski, and D. J. Fox, Gaussian, Inc., Wallingford CT, 2010.
 
 *******************************************
 Gaussian DV:  ES64L-GDVRevI.01+ 11-Sep-2014
                 22-Sep-2015 
 *******************************************
 --------------------------------------
 #p rohf/sto-3g gfinput pop=full nosymm
 --------------------------------------
 1/38=1,172=1/1;
 2/12=2,15=1,17=6,18=5,40=1/2;
 3/6=3,11=2,24=10,25=1,30=1,116=101/1,2,3;
 4//1;
 5/5=2,38=5/2;
 6/7=3,28=1/1;
 99/5=1,9=1/99;
 Leave Link    1 at Tue Sep 22 13:39:45 2015, MaxMem=           0 cpu:               0.0 elap:               0.0
 (Enter /home/gauss/gdvi01p/gdv/l101.exe)
 ---------
 O2 STO-3G
 ---------
 Symbolic Z-matrix:
 Charge =  0 Multiplicity = 3
 O                     0.        0.        0.60859 
 O                     0.        0.       -0.60859 
 
 ITRead=  0  0
 MicOpt= -1 -1
 NAtoms=      2 NQM=        2 NQMF=       0 NMMI=      0 NMMIF=      0
                NMic=       0 NMicF=      0.
                    Isotopes and Nuclear Properties:
 (Nuclear quadrupole moments (NQMom) in fm**2, nuclear magnetic moments (NMagM)
  in nuclear magnetons)

  Atom         1           2
 IAtWgt=          16          16
 AtmWgt=  15.9949146  15.9949146
 NucSpn=           0           0
 AtZEff=   0.0000000   0.0000000
 NQMom=    0.0000000   0.0000000
 NMagM=    0.0000000   0.0000000
 AtZNuc=   8.0000000   8.0000000
 Leave Link  101 at Tue Sep 22 13:39:45 2015, MaxMem=    33554432 cpu:               0.1 elap:               0.1
 (Enter /home/gauss/gdvi01p/gdv/l202.exe)
                          Input orientation:                          
 ---------------------------------------------------------------------
 Center     Atomic      Atomic             Coordinates (Angstroms)
 Number     Number       Type             X           Y           Z
 ---------------------------------------------------------------------
      1          8           0        0.000000    0.000000    0.608586
      2          8           0        0.000000    0.000000   -0.608586
 ---------------------------------------------------------------------
 Symmetry turned off by external request.
 Stoichiometry    O2(3)
 Framework group  D*H[C*(O.O)]
 Deg. of freedom     1
 Full point group                 D*H     NOp   8
 Rotational constants (GHZ):      0.0000000     42.6541569     42.6541569
 Leave Link  202 at Tue Sep 22 13:39:45 2015, MaxMem=    33554432 cpu:               0.0 elap:               0.0
 (Enter /home/gauss/gdvi01p/gdv/l301.exe)
 Standard basis: STO-3G (5D, 7F)
 Ernie: Thresh=  0.10000D-02 Tol=  0.10000D-05 Strict=F.
 AO basis set in the form of general basis input (Overlap normalization):
      1 0
 S   3 1.00       0.000000000000
      0.1307093214D+03  0.1543289673D+00
      0.2380886605D+02  0.5353281423D+00
      0.6443608313D+01  0.4446345422D+00
 SP   3 1.00       0.000000000000
      0.5033151319D+01 -0.9996722919D-01  0.1559162750D+00
      0.1169596125D+01  0.3995128261D+00  0.6076837186D+00
      0.3803889600D+00  0.7001154689D+00  0.3919573931D+00
 ****
      2 0
 S   3 1.00       0.000000000000
      0.1307093214D+03  0.1543289673D+00
      0.2380886605D+02  0.5353281423D+00
      0.6443608313D+01  0.4446345422D+00
 SP   3 1.00       0.000000000000
      0.5033151319D+01 -0.9996722919D-01  0.1559162750D+00
      0.1169596125D+01  0.3995128261D+00  0.6076837186D+00
      0.3803889600D+00  0.7001154689D+00  0.3919573931D+00
 ****

    10 basis functions,    30 primitive gaussians,    10 cartesian basis functions
     9 alpha electrons        7 beta electrons
       nuclear repulsion energy        27.8246143510 Hartrees.
 IExCor=    0 DFT=F Ex=HF Corr=None ExCW=0 ScaHFX=  1.000000
 ScaDFX=  1.000000  1.000000  1.000000  1.000000 ScalE2=  1.000000  1.000000
 IRadAn=      0 IRanWt=     -1 IRanGd=            0 ICorTp=0 IEmpDi=  4
 NAtoms=    2 NActive=    2 NUniq=    2 SFac= 1.00D+00 NAtFMM=   60 NAOKFM=F Big=F
 Integral buffers will be    131072 words long.
 Raffenetti 2 integral format.
 Two-electron integral symmetry is turned off.
 Leave Link  301 at Tue Sep 22 13:39:45 2015, MaxMem=    33554432 cpu:               0.0 elap:               0.1
 (Enter /home/gauss/gdvi01p/gdv/l302.exe)
 NPDir=0 NMtPBC=     1 NCelOv=     1 NCel=       1 NClECP=     1 NCelD=      1
         NCelK=      1 NCelE2=     1 NClLst=     1 CellRange=     0.0.
 One-electron integrals computed using PRISM.
 One-electron integral symmetry used in STVInt
 NBasis=    10 RedAO= T EigKep=  3.67D-01  NBF=    10
 NBsUse=    10 1.00D-06 EigRej= -1.00D+00 NBFU=    10
 Leave Link  302 at Tue Sep 22 13:39:45 2015, MaxMem=    33554432 cpu:               0.1 elap:               0.1
 (Enter /home/gauss/gdvi01p/gdv/l303.exe)
 DipDrv:  MaxL=1.
 Leave Link  303 at Tue Sep 22 13:39:45 2015, MaxMem=    33554432 cpu:               0.0 elap:               0.0
 (Enter /home/gauss/gdvi01p/gdv/l401.exe)
 ExpMin= 3.80D-01 ExpMax= 1.31D+02 ExpMxC= 1.31D+02 IAcc=1 IRadAn=         1 AccDes= 0.00D+00
 Harris functional with IExCor=  205 and IRadAn=       1 diagonalized for initial guess.
 HarFok:  IExCor=  205 AccDes= 0.00D+00 IRadAn=         1 IDoV= 1 UseB2=F ITyADJ=14
 ICtDFT=  3500011 ScaDFX=  1.000000  1.000000  1.000000  1.000000
 FoFCou: FMM=F IPFlag=           0 FMFlag=      100000 FMFlg1=           0
         NFxFlg=           0 DoJE=T BraDBF=F KetDBF=T FulRan=T
         wScrn=  0.000000 ICntrl=       500 IOpCl=  0 I1Cent=   200000004 NGrid=           0
         NMat0=    1 NMatS0=      1 NMatT0=    0 NMatD0=    1 NMtDS0=    0 NMtDT0=    0
 Symmetry not used in FoFCou.
 Harris En= -147.510557514834    
 JPrj=0 DoOrth=F DoCkMO=F.
 Leave Link  401 at Tue Sep 22 13:39:45 2015, MaxMem=    33554432 cpu:               0.1 elap:               0.1
 (Enter /home/gauss/gdvi01p/gdv/l502.exe)
 Keep R1 and R2 ints in memory in canonical form, NReq=805396.
 FoFCou: FMM=F IPFlag=           0 FMFlag=           0 FMFlg1=           0
         NFxFlg=           0 DoJE=F BraDBF=F KetDBF=F FulRan=T
         wScrn=  0.000000 ICntrl=       600 IOpCl=  0 I1Cent=           0 NGrid=           0
         NMat0=    1 NMatS0=     55 NMatT0=    0 NMatD0=    1 NMtDS0=    0 NMtDT0=    0
 Symmetry not used in FoFCou.
 Two-electron integral symmetry not used.
 Restricted open shell SCF:
 Using DIIS extrapolation, IDIIS=  1040.
 NGot=    33554432 LenX=    33550028 LenY=    33549146
 Requested convergence on RMS density matrix=1.00D-08 within 128 cycles.
 Requested convergence on MAX density matrix=1.00D-06.
 Requested convergence on             energy=1.00D-06.
 No special actions if energy rises.

 Cycle   1  Pass 1  IDiag  1:
 E= -147.630961797902    
 DIIS: error= 2.72D-02 at cycle   1 NSaved=   1.
 NSaved= 1 IEnMin= 1 EnMin= -147.630961797902     IErMin= 1 ErrMin= 2.72D-02
 ErrMax= 2.72D-02  0.00D+00 EMaxC= 1.00D-01 BMatC= 3.74D-03 BMatP= 3.74D-03
 IDIUse=3 WtCom= 7.28D-01 WtEn= 2.72D-01
 Coeff-Com:  0.100D+01
 Coeff-En:   0.100D+01
 Coeff:      0.100D+01
 Gap=     0.752 Goal=   None    Shift=    0.000
 GapD=    0.752 DampG=2.000 DampE=0.500 DampFc=1.0000 IDamp=-1.
 RMSDP=4.54D-03 MaxDP=1.45D-02              OVMax= 0.00D+00

 Cycle   2  Pass 1  IDiag  1:
 E= -147.632357937391     Delta-E=       -0.001396139488 Rises=F Damp=F
 DIIS: error= 3.36D-03 at cycle   2 NSaved=   2.
 NSaved= 2 IEnMin= 2 EnMin= -147.632357937391     IErMin= 2 ErrMin= 3.36D-03
 ErrMax= 3.36D-03  0.00D+00 EMaxC= 1.00D-01 BMatC= 4.80D-05 BMatP= 3.74D-03
 IDIUse=3 WtCom= 9.66D-01 WtEn= 3.36D-02
 Coeff-Com: -0.980D-01 0.110D+01
 Coeff-En:   0.000D+00 0.100D+01
 Coeff:     -0.947D-01 0.109D+01
 Gap=     0.754 Goal=   None    Shift=    0.000
 RMSDP=1.07D-03 MaxDP=3.50D-03 DE=-1.40D-03 OVMax= 0.00D+00

 Cycle   3  Pass 1  IDiag  1:
 E= -147.632413760877     Delta-E=       -0.000055823486 Rises=F Damp=F
 DIIS: error= 3.68D-04 at cycle   3 NSaved=   3.
 NSaved= 3 IEnMin= 3 EnMin= -147.632413760877     IErMin= 3 ErrMin= 3.68D-04
 ErrMax= 3.68D-04  0.00D+00 EMaxC= 1.00D-01 BMatC= 7.31D-07 BMatP= 4.80D-05
 IDIUse=3 WtCom= 9.96D-01 WtEn= 3.68D-03
 Coeff-Com:  0.103D-01-0.215D+00 0.120D+01
 Coeff-En:   0.000D+00 0.000D+00 0.100D+01
 Coeff:      0.102D-01-0.214D+00 0.120D+01
 Gap=     0.754 Goal=   None    Shift=    0.000
 RMSDP=1.73D-04 MaxDP=5.66D-04 DE=-5.58D-05 OVMax= 0.00D+00

 Cycle   4  Pass 1  IDiag  1:
 E= -147.632414847320     Delta-E=       -0.000001086443 Rises=F Damp=F
 DIIS: error= 3.23D-07 at cycle   4 NSaved=   4.
 NSaved= 4 IEnMin= 4 EnMin= -147.632414847320     IErMin= 4 ErrMin= 3.23D-07
 ErrMax= 3.23D-07  0.00D+00 EMaxC= 1.00D-01 BMatC= 5.40D-13 BMatP= 7.31D-07
 IDIUse=1 WtCom= 1.00D+00 WtEn= 0.00D+00
 Coeff-Com:  0.309D-06-0.188D-04-0.730D-03 0.100D+01
 Coeff:      0.309D-06-0.188D-04-0.730D-03 0.100D+01
 Gap=     0.754 Goal=   None    Shift=    0.000
 RMSDP=1.47D-07 MaxDP=4.84D-07 DE=-1.09D-06 OVMax= 0.00D+00

 Cycle   5  Pass 1  IDiag  1:
 E= -147.632414847321     Delta-E=       -0.000000000001 Rises=F Damp=F
 DIIS: error= 2.46D-11 at cycle   5 NSaved=   5.
 NSaved= 5 IEnMin= 5 EnMin= -147.632414847321     IErMin= 5 ErrMin= 2.46D-11
 ErrMax= 2.46D-11  0.00D+00 EMaxC= 1.00D-01 BMatC= 4.00D-21 BMatP= 5.40D-13
 IDIUse=1 WtCom= 1.00D+00 WtEn= 0.00D+00
 Large coefficients: NSaved=  5 BigCof=    0.00 CofMax=   10.00 Det=-1.65D-28
 Inversion failed.  Reducing to  4 matrices.
 Coeff-Com: -0.371D-08 0.597D-06-0.583D-03 0.100D+01
 Coeff:     -0.371D-08 0.597D-06-0.583D-03 0.100D+01
 Gap=     0.754 Goal=   None    Shift=    0.000
 RMSDP=1.24D-11 MaxDP=4.10D-11 DE=-8.24D-13 OVMax= 0.00D+00

 SCF Done:  E(ROHF) =  -147.632414847     A.U. after    5 cycles
            NFock=  5  Conv=0.12D-10     -V/T= 2.0113
 <Sx>= 0.0000 <Sy>= 0.0000 <Sz>= 1.0000 <S**2>= 2.0000 S= 1.0000
 <L.S>= 0.000000000000E+00
 KE= 1.459863235126D+02 PE=-4.058409467904D+02 EE= 8.439759407942D+01
 Annihilation of the first spin contaminant:
 S**2 before annihilation     2.0000,   after     2.0000
 Leave Link  502 at Tue Sep 22 13:39:45 2015, MaxMem=    33554432 cpu:               0.0 elap:               0.1
 (Enter /home/gauss/gdvi01p/gdv/l601.exe)
 Copying SCF densities to generalized density rwf, IOpCl= 0 IROHF=1.

 **********************************************************************

            Population analysis using the SCF density.

 **********************************************************************

 Alpha  occ. eigenvalues --  -20.41844 -20.41796  -1.52514  -0.96264  -0.56732
 Alpha  occ. eigenvalues --   -0.53009  -0.53009  -0.04922  -0.04922
 Alpha virt. eigenvalues --    0.70496
     Molecular Orbital Coefficients:
                           1         2         3         4         5
                           O         O         O         O         O
     Eigenvalues --   -20.41844 -20.41796  -1.52514  -0.96264  -0.56732
   1 1   O  1S          0.70304   0.70373  -0.16846  -0.18525  -0.06655
   2        2S          0.01926   0.01252   0.57410   0.77606   0.33196
   3        2PX         0.00000   0.00000   0.00000   0.00000   0.00000
   4        2PY         0.00000   0.00000   0.00000   0.00000   0.00000
   5        2PZ        -0.00558  -0.00011  -0.17451   0.15571   0.61434
   6 2   O  1S         -0.70304   0.70373  -0.16846   0.18525  -0.06655
   7        2S         -0.01926   0.01252   0.57410  -0.77606   0.33196
   8        2PX         0.00000   0.00000   0.00000   0.00000   0.00000
   9        2PY         0.00000   0.00000   0.00000   0.00000   0.00000
  10        2PZ        -0.00558   0.00011   0.17451   0.15571  -0.61434
                           6         7         8         9        10
                           O         O         O         O         V
     Eigenvalues --    -0.53009  -0.53009  -0.04922  -0.04922   0.70496
   1 1   O  1S          0.00000   0.00000   0.00000   0.00000   0.09313
   2        2S          0.00000   0.00000   0.00000   0.00000  -0.56857
   3        2PX         0.65929  -0.02397   0.75264   0.14467   0.00000
   4        2PY         0.02397   0.65929  -0.14467   0.75264   0.00000
   5        2PZ         0.00000   0.00000   0.00000   0.00000   0.93884
   6 2   O  1S          0.00000   0.00000   0.00000   0.00000  -0.09313
   7        2S          0.00000   0.00000   0.00000   0.00000   0.56857
   8        2PX         0.65929  -0.02397  -0.75264  -0.14467   0.00000
   9        2PY         0.02397   0.65929   0.14467  -0.75264   0.00000
  10        2PZ         0.00000   0.00000   0.00000   0.00000   0.93884
     Alpha Density Matrix:
                           1         2         3         4         5
   1 1   O  1S          1.05662
   2        2S         -0.24021   1.04259
   3        2PX         0.00000   0.00000   1.02264
   4        2PY         0.00000   0.00000   0.00000   1.02264
   5        2PZ        -0.04433   0.22448   0.00000   0.00000   0.43214
   6 2   O  1S         -0.00054   0.02023   0.00000   0.00000   0.02120
   7        2S          0.02023  -0.16269   0.00000   0.00000  -0.01699
   8        2PX         0.00000   0.00000  -0.15217   0.00000   0.00000
   9        2PY         0.00000   0.00000   0.00000  -0.15217   0.00000
  10        2PZ        -0.02120   0.01699   0.00000   0.00000  -0.38359
                           6         7         8         9        10
   6 2   O  1S          1.05662
   7        2S         -0.24021   1.04259
   8        2PX         0.00000   0.00000   1.02264
   9        2PY         0.00000   0.00000   0.00000   1.02264
  10        2PZ         0.04433  -0.22448   0.00000   0.00000   0.43214
     Beta Density Matrix:
                           1         2         3         4         5
   1 1   O  1S          1.05662
   2        2S         -0.24021   1.04259
   3        2PX         0.00000   0.00000   0.43524
   4        2PY         0.00000   0.00000   0.00000   0.43524
   5        2PZ        -0.04433   0.22448   0.00000   0.00000   0.43214
   6 2   O  1S         -0.00054   0.02023   0.00000   0.00000   0.02120
   7        2S          0.02023  -0.16269   0.00000   0.00000  -0.01699
   8        2PX         0.00000   0.00000   0.43524   0.00000   0.00000
   9        2PY         0.00000   0.00000   0.00000   0.43524   0.00000
  10        2PZ        -0.02120   0.01699   0.00000   0.00000  -0.38359
                           6         7         8         9        10
   6 2   O  1S          1.05662
   7        2S         -0.24021   1.04259
   8        2PX         0.00000   0.00000   0.43524
   9        2PY         0.00000   0.00000   0.00000   0.43524
  10        2PZ         0.04433  -0.22448   0.00000   0.00000   0.43214
    Full Mulliken population analysis:
                           1         2         3         4         5
   1 1   O  1S          2.11323
   2        2S         -0.11372   2.08517
   3        2PX         0.00000   0.00000   1.45788
   4        2PY         0.00000   0.00000   0.00000   1.45788
   5        2PZ         0.00000   0.00000   0.00000   0.00000   0.86429
   6 2   O  1S          0.00000   0.00090   0.00000   0.00000  -0.00159
   7        2S          0.00090  -0.08981   0.00000   0.00000   0.01078
   8        2PX         0.00000   0.00000   0.04212   0.00000   0.00000
   9        2PY         0.00000   0.00000   0.00000   0.04212   0.00000
  10        2PZ        -0.00159   0.01078   0.00000   0.00000   0.23439
                           6         7         8         9        10
   6 2   O  1S          2.11323
   7        2S         -0.11372   2.08517
   8        2PX         0.00000   0.00000   1.45788
   9        2PY         0.00000   0.00000   0.00000   1.45788
  10        2PZ         0.00000   0.00000   0.00000   0.00000   0.86429
     Gross orbital populations:
                         Total     Alpha     Beta      Spin
   1 1   O  1S          1.99882   0.99941   0.99941   0.00000
   2        2S          1.89331   0.94666   0.94666   0.00000
   3        2PX         1.50000   1.00000   0.50000   0.50000
   4        2PY         1.50000   1.00000   0.50000   0.50000
   5        2PZ         1.10787   0.55393   0.55393   0.00000
   6 2   O  1S          1.99882   0.99941   0.99941   0.00000
   7        2S          1.89331   0.94666   0.94666   0.00000
   8        2PX         1.50000   1.00000   0.50000   0.50000
   9        2PY         1.50000   1.00000   0.50000   0.50000
  10        2PZ         1.10787   0.55393   0.55393   0.00000
          Condensed to atoms (all electrons):
               1          2
     1  O    7.751012   0.248988
     2  O    0.248988   7.751012
          Atomic-Atomic Spin Densities.
               1          2
     1  O    1.174807  -0.174807
     2  O   -0.174807   1.174807
 Mulliken charges and spin densities:
               1          2
     1  O    0.000000   1.000000
     2  O    0.000000   1.000000
 Sum of Mulliken charges =   0.00000   2.00000
 Mulliken charges and spin densities with hydrogens summed into heavy atoms:
               1          2
     1  O    0.000000   1.000000
     2  O    0.000000   1.000000
 Electronic spatial extent (au):  <R**2>=             40.9749
 Charge=              0.0000 electrons
 Dipole moment (field-independent basis, Debye):
    X=              0.0000    Y=              0.0000    Z=              0.0000  Tot=              0.0000
 Quadrupole moment (field-independent basis, Debye-Ang):
   XX=             -8.4759   YY=             -8.4759   ZZ=             -9.6969
   XY=              0.0000   XZ=              0.0000   YZ=              0.0000
 Traceless Quadrupole moment (field-independent basis, Debye-Ang):
   XX=              0.4070   YY=              0.4070   ZZ=             -0.8141
   XY=              0.0000   XZ=              0.0000   YZ=              0.0000
 Octapole moment (field-independent basis, Debye-Ang**2):
  XXX=              0.0000  YYY=              0.0000  ZZZ=              0.0000  XYY=              0.0000
  XXY=              0.0000  XXZ=              0.0000  XZZ=              0.0000  YZZ=              0.0000
  YYZ=              0.0000  XYZ=              0.0000
 Hexadecapole moment (field-independent basis, Debye-Ang**3):
 XXXX=             -3.9635 YYYY=             -3.9635 ZZZZ=            -23.6583 XXXY=              0.0000
 XXXZ=              0.0000 YYYX=              0.0000 YYYZ=              0.0000 ZZZX=              0.0000
 ZZZY=              0.0000 XXYY=             -1.3212 XXZZ=             -4.5962 YYZZ=             -4.5962
 XXYZ=              0.0000 YYXZ=              0.0000 ZZXY=              0.0000
 N-N= 2.782461435104D+01 E-N=-4.058409467903D+02  KE= 1.459863235126D+02
 Orbital energies and kinetic energies (alpha):
                                 1                 2
   1         O               -20.418435         28.662866
   2         O               -20.417962         28.720449
   3         O                -1.525143          2.500302
   4         O                -0.962636          3.204418
   5         O                -0.567324          2.498547
   6         O                -0.530092          2.252565
   7         O                -0.530092          2.252565
   8         O                -0.049223          2.901449
   9         O                -0.049223          2.901449
  10         V                 0.704960          4.578608
 Total kinetic energy from orbitals= 1.517892221665D+02
                          Isotropic Fermi Contact Couplings
        Atom                 a.u.       MegaHertz       Gauss      10(-4) cm-1
     1  O(17)              0.00000       0.00000       0.00000       0.00000
     2  O(17)              0.00000       0.00000       0.00000       0.00000
 --------------------------------------------------------
       Center         ----  Spin Dipole Couplings  ----
                      3XX-RR        3YY-RR        3ZZ-RR
 --------------------------------------------------------
     1   Atom        0.757636      0.757636     -1.515273
     2   Atom        0.757636      0.757636     -1.515273
 --------------------------------------------------------
                        XY            XZ            YZ
 --------------------------------------------------------
     1   Atom        0.000000      0.000000      0.000000
     2   Atom        0.000000      0.000000      0.000000
 --------------------------------------------------------


 ---------------------------------------------------------------------------------
              Anisotropic Spin Dipole Couplings in Principal Axis System
 ---------------------------------------------------------------------------------

       Atom             a.u.   MegaHertz   Gauss  10(-4) cm-1        Axes

              Baa    -1.5153   109.644    39.124    36.573  0.0000  0.0000  1.0000
     1 O(17)  Bbb     0.7576   -54.822   -19.562   -18.287  0.7656 -0.6433  0.0000
              Bcc     0.7576   -54.822   -19.562   -18.287  0.6433  0.7656  0.0000
 
              Baa    -1.5153   109.644    39.124    36.573  0.0000  0.0000  1.0000
     2 O(17)  Bbb     0.7576   -54.822   -19.562   -18.287  0.6035  0.7974  0.0000
              Bcc     0.7576   -54.822   -19.562   -18.287  0.7974 -0.6035  0.0000
 

 ---------------------------------------------------------------------------------

 No NMR shielding tensors so no spin-rotation constants.
 Leave Link  601 at Tue Sep 22 13:39:45 2015, MaxMem=    33554432 cpu:               0.2 elap:               0.2
 (Enter /home/gauss/gdvi01p/gdv/l9999.exe)
 Unable to Open any file for archive entry.
 1\1\GINC-MEDUSA\SP\ROHF\STO-3G\O2(3)\DBWY\22-Sep-2015\0\\#p rohf/sto-3
 g gfinput pop=full nosymm\\O2 STO-3G\\0,3\O,0,0.,0.,0.608586\O,0,0.,0.
 ,-0.608586\\Version=ES64L-GDVRevI.01+\HF=-147.6324148\RMSD=1.244e-11\D
 ipole=0.,0.,0.\Quadrupole=0.3026133,0.3026133,-0.6052266,0.,0.,0.\PG=D
 *H [C*(O1.O1)]\\@
 The archive entry for this job was punched.


 You don't have to suffer to be a poet.
 Adolescence is enough suffering for anyone.
                             -- John Ciardi
 Job cpu time:       0 days  0 hours  0 minutes  0.8 seconds.
 Elapsed time:       0 days  0 hours  0 minutes  0.6 seconds.
 File lengths (MBytes):  RWF=      5 Int=      0 D2E=      0 Chk=      1 Scr=      1
 Normal termination of Gaussian DV at Tue Sep 22 13:39:45 2015.
