 Entering Gaussian System, Link 0=gdv
 Input=O2_svpd_CIS.com
 Output=O2_svpd_CIS.log
 Initial command:
 /home/gauss/gdvi03p/gdv/l1.exe "/home/GauScr/Gau-24105.inp" -scrdir="/home/GauScr/"
 Entering Link 1 = /home/gauss/gdvi03p/gdv/l1.exe PID=     24106.
  
 Copyright (c) 1988,1990,1992,1993,1995,1998,2003,2009,2015,
            Gaussian, Inc.  All Rights Reserved.
  
 This is the private, development version of
 the Gaussian(R) DV system of programs. It is based on
 the Gaussian(R) 09 system (copyright 2009, Gaussian, Inc.),
 the Gaussian(R) 03 system (copyright 2003, Gaussian, Inc.),
 the Gaussian(R) 98 system (copyright 1998, Gaussian, Inc.),
 the Gaussian(R) 94 system (copyright 1995, Gaussian, Inc.),
 the Gaussian 92(TM) system (copyright 1992, Gaussian, Inc.),
 the Gaussian 90(TM) system (copyright 1990, Gaussian, Inc.),
 the Gaussian 88(TM) system (copyright 1988, Gaussian, Inc.),
 the Gaussian 86(TM) system (copyright 1986, Carnegie Mellon
 University), and the Gaussian 82(TM) system (copyright 1983,
 Carnegie Mellon University). Gaussian is a federally registered
 trademark of Gaussian, Inc.
  
 This software contains proprietary and confidential information,
 including trade secrets, belonging to Gaussian, Inc.
  
 This software is provided under written license and may be
 used, copied, transmitted, or stored only in accord with that
 written license.
  
 The following legend is applicable only to US Government
 contracts under FAR:
  
                    RESTRICTED RIGHTS LEGEND
  
 Use, reproduction and disclosure by the US Government is
 subject to restrictions as set forth in subparagraphs (a)
 and (c) of the Commercial Computer Software - Restricted
 Rights clause in FAR 52.227-19.
  
 Gaussian, Inc.
 340 Quinnipiac St., Bldg. 40, Wallingford CT 06492
  
  
 ---------------------------------------------------------------
 Warning -- This program may not be used in any manner that
 competes with the business of Gaussian, Inc. or will provide
 assistance to any competitor of Gaussian, Inc.  The licensee
 of this program is prohibited from giving any competitor of
 Gaussian, Inc. access to this program.  By using this program,
 the user acknowledges that Gaussian, Inc. is engaged in the
 business of creating and licensing software in the field of
 computational chemistry and represents and warrants to the
 licensee that it is not a competitor of Gaussian, Inc. and that
 it will not use this program in any manner prohibited above.
 ---------------------------------------------------------------
  

 Cite this work as:
 Gaussian Development Version, Revision I.03+,
 M. J. Frisch, G. W. Trucks, H. B. Schlegel, G. E. Scuseria, 
 M. A. Robb, J. R. Cheeseman, G. Scalmani, V. Barone, B. Mennucci, 
 G. A. Petersson, H. Nakatsuji, M. Caricato, X. Li, H. P. Hratchian, 
 J. Bloino, B. G. Janesko, A. F. Izmaylov, A. Marenich, F. Lipparini, 
 G. Zheng, J. L. Sonnenberg, W. Liang, M. Hada, M. Ehara, K. Toyota, 
 R. Fukuda, J. Hasegawa, M. Ishida, T. Nakajima, Y. Honda, O. Kitao, 
 H. Nakai, T. Vreven, K. Throssell, J. A. Montgomery, Jr., 
 J. E. Peralta, F. Ogliaro, M. Bearpark, J. J. Heyd, E. Brothers, 
 K. N. Kudin, V. N. Staroverov, T. Keith, R. Kobayashi, J. Normand, 
 K. Raghavachari, A. Rendell, J. C. Burant, S. S. Iyengar, J. Tomasi, 
 M. Cossi, N. Rega, J. M. Millam, M. Klene, J. E. Knox, J. B. Cross, 
 V. Bakken, C. Adamo, J. Jaramillo, R. Gomperts, R. E. Stratmann, 
 O. Yazyev, A. J. Austin, R. Cammi, C. Pomelli, J. W. Ochterski, 
 R. L. Martin, K. Morokuma, V. G. Zakrzewski, G. A. Voth, 
 P. Salvador, J. J. Dannenberg, S. Dapprich, P. V. Parandekar, 
 N. J. Mayhall, A. D. Daniels, O. Farkas, J. B. Foresman, 
 J. V. Ortiz, J. Cioslowski, and D. J. Fox, 
 Gaussian, Inc., Wallingford CT, 2014.
 
 *******************************************
 Gaussian DV:  ES64L-GDVRevI.03+  2-May-2015
                 28-Oct-2015 
 *******************************************
 ----------------------------------
 #p uhf/gen cis(full,nstates=12) 6D
 ----------------------------------
 1/38=1,172=1/1;
 2/12=2,17=6,18=5,40=1/2;
 3/5=7,8=2,11=2,25=1,30=1,116=2/1,2,3,8;
 4//1;
 5/5=2,38=5/2;
 8/6=1,10=90,108=12/1,4;
 9/41=12,42=3/14;
 6/7=2,8=2,9=2,10=2/1;
 99/5=1,9=1/99;
 Leave Link    1 at Wed Oct 28 14:56:26 2015, MaxMem=           0 cpu:               0.0 elap:               0.0
 (Enter /home/gauss/gdvi03p/gdv/l101.exe)
 ----------
 O2 cc-pVDZ
 ----------
 Symbolic Z-matrix:
 Charge =  0 Multiplicity = 3
 O                     0.        0.        0.60859 
 O                     0.        0.       -0.60859 
 
 ITRead=  0  0
 MicOpt= -1 -1
 NAtoms=      2 NQM=        2 NQMF=       0 NMMI=      0 NMMIF=      0
                NMic=       0 NMicF=      0.
                    Isotopes and Nuclear Properties:
 (Nuclear quadrupole moments (NQMom) in fm**2, nuclear magnetic moments (NMagM)
  in nuclear magnetons)

  Atom         1           2
 IAtWgt=          16          16
 AtmWgt=  15.9949146  15.9949146
 NucSpn=           0           0
 AtZEff=   0.0000000   0.0000000
 NQMom=    0.0000000   0.0000000
 NMagM=    0.0000000   0.0000000
 AtZNuc=   8.0000000   8.0000000
 Leave Link  101 at Wed Oct 28 14:56:26 2015, MaxMem=    33554432 cpu:               0.1 elap:               0.1
 (Enter /home/gauss/gdvi03p/gdv/l202.exe)
                          Input orientation:                          
 ---------------------------------------------------------------------
 Center     Atomic      Atomic             Coordinates (Angstroms)
 Number     Number       Type             X           Y           Z
 ---------------------------------------------------------------------
      1          8           0        0.000000    0.000000    0.608586
      2          8           0        0.000000    0.000000   -0.608586
 ---------------------------------------------------------------------
 Stoichiometry    O2(3)
 Framework group  D*H[C*(O.O)]
 Deg. of freedom     1
 Full point group                 D*H     NOp   8
 Largest Abelian subgroup         D2H     NOp   8
 Largest concise Abelian subgroup C2      NOp   2
                         Standard orientation:                         
 ---------------------------------------------------------------------
 Center     Atomic      Atomic             Coordinates (Angstroms)
 Number     Number       Type             X           Y           Z
 ---------------------------------------------------------------------
      1          8           0        0.000000    0.000000    0.608586
      2          8           0        0.000000    0.000000   -0.608586
 ---------------------------------------------------------------------
 Rotational constants (GHZ):      0.0000000     42.6541569     42.6541569
 Leave Link  202 at Wed Oct 28 14:56:26 2015, MaxMem=    33554432 cpu:               0.0 elap:               0.0
 (Enter /home/gauss/gdvi03p/gdv/l301.exe)
 General basis read from cards:  (6D, 7F)
 Centers:       1      2
 S 5 1.00
     Exponent=  2.2661767785D+03 Coefficients= -5.3431809926D-03
     Exponent=  3.4087010191D+02 Coefficients= -3.9890039230D-02
     Exponent=  7.7363135167D+01 Coefficients= -1.7853911985D-01
     Exponent=  2.1479644940D+01 Coefficients= -4.6427684959D-01
     Exponent=  6.6589433124D+00 Coefficients= -4.4309745172D-01
 S 1 1.00
     Exponent=  8.0975975668D-01 Coefficients=  1.0000000000D+00
 S 1 1.00
     Exponent=  2.5530772234D-01 Coefficients=  1.0000000000D+00
 S 1 1.00
     Exponent=  7.6572453250D-02 Coefficients=  1.0000000000D+00
 P 3 1.00
     Exponent=  1.7721504317D+01 Coefficients=  4.3394573193D-02
     Exponent=  3.8635505440D+00 Coefficients=  2.3094120765D-01
     Exponent=  1.0480920883D+00 Coefficients=  5.1375311064D-01
 P 1 1.00
     Exponent=  2.7641544411D-01 Coefficients=  1.0000000000D+00
 P 1 1.00
     Exponent=  6.9002276350D-02 Coefficients=  1.0000000000D+00
 D 1 1.00
     Exponent=  1.2000000000D+00 Coefficients=  1.0000000000D+00
 D 1 1.00
     Exponent=  1.7992024323D-01 Coefficients=  1.0000000000D+00
 ****
 Ernie: Thresh=  0.10000D-02 Tol=  0.10000D-05 Strict=F.
 There are    13 symmetry adapted cartesian basis functions of AG  symmetry.
 There are     2 symmetry adapted cartesian basis functions of B1G symmetry.
 There are     5 symmetry adapted cartesian basis functions of B2G symmetry.
 There are     5 symmetry adapted cartesian basis functions of B3G symmetry.
 There are     2 symmetry adapted cartesian basis functions of AU  symmetry.
 There are    13 symmetry adapted cartesian basis functions of B1U symmetry.
 There are     5 symmetry adapted cartesian basis functions of B2U symmetry.
 There are     5 symmetry adapted cartesian basis functions of B3U symmetry.
 There are    13 symmetry adapted basis functions of AG  symmetry.
 There are     2 symmetry adapted basis functions of B1G symmetry.
 There are     5 symmetry adapted basis functions of B2G symmetry.
 There are     5 symmetry adapted basis functions of B3G symmetry.
 There are     2 symmetry adapted basis functions of AU  symmetry.
 There are    13 symmetry adapted basis functions of B1U symmetry.
 There are     5 symmetry adapted basis functions of B2U symmetry.
 There are     5 symmetry adapted basis functions of B3U symmetry.
    50 basis functions,    70 primitive gaussians,    50 cartesian basis functions
     9 alpha electrons        7 beta electrons
       nuclear repulsion energy        27.8246143510 Hartrees.
 IExCor=    0 DFT=F Ex=HF Corr=None ExCW=0 ScaHFX=  1.000000
 ScaDFX=  1.000000  1.000000  1.000000  1.000000 ScalE2=  1.000000  1.000000
 IRadAn=      0 IRanWt=     -1 IRanGd=            0 ICorTp=0 IEmpDi=  4
 NAtoms=    2 NActive=    2 NUniq=    1 SFac= 4.00D+00 NAtFMM=   60 NAOKFM=F Big=F
 Integral buffers will be    131072 words long.
 Raffenetti 2 integral format.
 Two-electron integral symmetry is turned on.
 Leave Link  301 at Wed Oct 28 14:56:26 2015, MaxMem=    33554432 cpu:               0.1 elap:               0.1
 (Enter /home/gauss/gdvi03p/gdv/l302.exe)
 NPDir=0 NMtPBC=     1 NCelOv=     1 NCel=       1 NClECP=     1 NCelD=      1
         NCelK=      1 NCelE2=     1 NClLst=     1 CellRange=     0.0.
 One-electron integrals computed using PRISM.
 One-electron integral symmetry used in STVInt
 NBasis=    50 RedAO= T EigKep=  2.01D-04  NBF=    13     2     5     5     2    13     5     5
 NBsUse=    50 1.00D-06 EigRej= -1.00D+00 NBFU=    13     2     5     5     2    13     5     5
 Leave Link  302 at Wed Oct 28 14:56:26 2015, MaxMem=    33554432 cpu:               0.1 elap:               0.1
 (Enter /home/gauss/gdvi03p/gdv/l303.exe)
 DipDrv:  MaxL=1.
 Leave Link  303 at Wed Oct 28 14:56:26 2015, MaxMem=    33554432 cpu:               0.0 elap:               0.0
 (Enter /home/gauss/gdvi03p/gdv/l308.exe)
 Leave Link  308 at Wed Oct 28 14:56:26 2015, MaxMem=    33554432 cpu:               0.0 elap:               0.0
 (Enter /home/gauss/gdvi03p/gdv/l401.exe)
 ExpMin= 6.90D-02 ExpMax= 2.27D+03 ExpMxC= 3.41D+02 IAcc=2 IRadAn=         4 AccDes= 0.00D+00
 Harris functional with IExCor=  205 and IRadAn=       4 diagonalized for initial guess.
 HarFok:  IExCor=  205 AccDes= 0.00D+00 IRadAn=         4 IDoV= 1 UseB2=F ITyADJ=14
 ICtDFT=  3500011 ScaDFX=  1.000000  1.000000  1.000000  1.000000
 FoFCou: FMM=F IPFlag=           0 FMFlag=      100000 FMFlg1=           0
         NFxFlg=           0 DoJE=T BraDBF=F KetDBF=T FulRan=T
         wScrn=  0.000000 ICntrl=       500 IOpCl=  0 I1Cent=   200000004 NGrid=           0
         NMat0=    1 NMatS0=      1 NMatT0=    0 NMatD0=    1 NMtDS0=    0 NMtDT0=    0
 Petite list used in FoFCou.
 Harris En= -149.451511935337    
 JPrj=0 DoOrth=F DoCkMO=F.
 Initial guess orbital symmetries:
 Alpha Orbitals:
       Occupied  (SGG) (SGU) (SGG) (SGU) (SGG) (PIU) (PIU) (PIG)
                 (PIG)
       Virtual   (SGG) (SGU) (PIU) (PIU) (SGG) (PIG) (PIG) (SGU)
                 (SGU) (DLTG) (DLTG) (SGG) (SGU) (PIU) (PIU) (SGG)
                 (DLTU) (DLTU) (PIG) (PIG) (SGU) (PIU) (PIU) (SGG)
                 (PIG) (PIG) (SGU) (SGG) (SGU) (PIU) (PIU) (DLTG)
                 (DLTG) (SGG) (DLTU) (DLTU) (PIG) (PIG) (SGU) (SGG)
                 (SGU)
 Beta  Orbitals:
       Occupied  (SGG) (SGU) (SGG) (SGU) (SGG) (PIU) (PIU)
       Virtual   (PIG) (PIG) (SGG) (SGU) (PIU) (PIU) (SGG) (PIG)
                 (PIG) (SGU) (SGU) (DLTG) (DLTG) (SGG) (SGU) (PIU)
                 (PIU) (SGG) (DLTU) (DLTU) (PIG) (PIG) (SGU) (PIU)
                 (PIU) (SGG) (PIG) (PIG) (SGU) (SGG) (SGU) (PIU)
                 (PIU) (DLTG) (DLTG) (SGG) (DLTU) (DLTU) (PIG)
                 (PIG) (SGU) (SGG) (SGU)
 The electronic state of the initial guess is 3-SGG.
 Initial guess <Sx>= 0.0000 <Sy>= 0.0000 <Sz>= 1.0000 <S**2>= 2.0000 S= 1.0000
 Leave Link  401 at Wed Oct 28 14:56:26 2015, MaxMem=    33554432 cpu:               0.1 elap:               0.1
 (Enter /home/gauss/gdvi03p/gdv/l502.exe)
 Keep R1 and R2 ints in memory in symmetry-blocked form, NReq=1651045.
 FoFCou: FMM=F IPFlag=           0 FMFlag=           0 FMFlg1=           0
         NFxFlg=           0 DoJE=F BraDBF=F KetDBF=F FulRan=T
         wScrn=  0.000000 ICntrl=       600 IOpCl=  0 I1Cent=           0 NGrid=           0
         NMat0=    1 NMatS0=   1275 NMatT0=    0 NMatD0=    1 NMtDS0=    0 NMtDT0=    0
 Petite list used in FoFCou.
 UHF open shell SCF:
 Using DIIS extrapolation, IDIIS=  1040.
 NGot=    33554432 LenX=    33319072 LenY=    33316131
 Requested convergence on RMS density matrix=1.00D-08 within 128 cycles.
 Requested convergence on MAX density matrix=1.00D-06.
 Requested convergence on             energy=1.00D-06.
 No special actions if energy rises.

 Cycle   1  Pass 1  IDiag  1:
 E= -149.452825054389    
 DIIS: error= 1.07D-01 at cycle   1 NSaved=   1.
 NSaved= 1 IEnMin= 1 EnMin= -149.452825054389     IErMin= 1 ErrMin= 1.07D-01
 ErrMax= 1.07D-01  0.00D+00 EMaxC= 1.00D-01 BMatC= 6.02D-01 BMatP= 6.02D-01
 IDIUse=3 WtCom= 0.00D+00 WtEn= 1.00D+00
 Coeff-Com:  0.100D+01
 Coeff-En:   0.100D+01
 Coeff:      0.100D+01
 Gap=     0.688 Goal=   None    Shift=    0.000
 Gap=     0.679 Goal=   None    Shift=    0.000
 GapD=    0.679 DampG=2.000 DampE=0.250 DampFc=0.5000 IDamp=-1.
 Damping current iteration by 5.00D-01
 RMSDP=3.70D-03 MaxDP=3.57D-02              OVMax= 4.47D-02

 Cycle   2  Pass 1  IDiag  1:
 E= -149.472983213347     Delta-E=       -0.020158158958 Rises=F Damp=T
 DIIS: error= 5.50D-02 at cycle   2 NSaved=   2.
 NSaved= 2 IEnMin= 2 EnMin= -149.472983213347     IErMin= 2 ErrMin= 5.50D-02
 ErrMax= 5.50D-02  0.00D+00 EMaxC= 1.00D-01 BMatC= 1.72D-01 BMatP= 6.02D-01
 IDIUse=3 WtCom= 4.50D-01 WtEn= 5.50D-01
 Coeff-Com: -0.109D+01 0.209D+01
 Coeff-En:   0.000D+00 0.100D+01
 Coeff:     -0.488D+00 0.149D+01
 Gap=     0.674 Goal=   None    Shift=    0.000
 Gap=     0.663 Goal=   None    Shift=    0.000
 RMSDP=2.43D-03 MaxDP=2.44D-02 DE=-2.02D-02 OVMax= 1.80D-02

 Cycle   3  Pass 1  IDiag  1:
 E= -149.499789258941     Delta-E=       -0.026806045594 Rises=F Damp=F
 DIIS: error= 5.61D-03 at cycle   3 NSaved=   3.
 NSaved= 3 IEnMin= 3 EnMin= -149.499789258941     IErMin= 3 ErrMin= 5.61D-03
 ErrMax= 5.61D-03  0.00D+00 EMaxC= 1.00D-01 BMatC= 3.72D-03 BMatP= 1.72D-01
 IDIUse=3 WtCom= 9.44D-01 WtEn= 5.61D-02
 Coeff-Com:  0.598D+00-0.123D+01 0.163D+01
 Coeff-En:   0.000D+00 0.000D+00 0.100D+01
 Coeff:      0.565D+00-0.116D+01 0.159D+01
 Gap=     0.687 Goal=   None    Shift=    0.000
 Gap=     0.661 Goal=   None    Shift=    0.000
 RMSDP=8.45D-04 MaxDP=1.25D-02 DE=-2.68D-02 OVMax= 1.60D-02

 Cycle   4  Pass 1  IDiag  1:
 E= -149.501585221262     Delta-E=       -0.001795962321 Rises=F Damp=F
 DIIS: error= 1.68D-03 at cycle   4 NSaved=   4.
 NSaved= 4 IEnMin= 4 EnMin= -149.501585221262     IErMin= 4 ErrMin= 1.68D-03
 ErrMax= 1.68D-03  0.00D+00 EMaxC= 1.00D-01 BMatC= 3.56D-04 BMatP= 3.72D-03
 IDIUse=3 WtCom= 9.83D-01 WtEn= 1.68D-02
 Coeff-Com:  0.102D+00-0.182D+00-0.230D+00 0.131D+01
 Coeff-En:   0.000D+00 0.000D+00 0.000D+00 0.100D+01
 Coeff:      0.100D+00-0.179D+00-0.226D+00 0.130D+01
 Gap=     0.687 Goal=   None    Shift=    0.000
 Gap=     0.660 Goal=   None    Shift=    0.000
 RMSDP=3.10D-04 MaxDP=5.91D-03 DE=-1.80D-03 OVMax= 7.35D-03

 Cycle   5  Pass 1  IDiag  1:
 E= -149.501771779473     Delta-E=       -0.000186558211 Rises=F Damp=F
 DIIS: error= 3.44D-04 at cycle   5 NSaved=   5.
 NSaved= 5 IEnMin= 5 EnMin= -149.501771779473     IErMin= 5 ErrMin= 3.44D-04
 ErrMax= 3.44D-04  0.00D+00 EMaxC= 1.00D-01 BMatC= 9.25D-06 BMatP= 3.56D-04
 IDIUse=3 WtCom= 9.97D-01 WtEn= 3.44D-03
 Coeff-Com: -0.412D-01 0.818D-01-0.750D-01-0.750D-01 0.111D+01
 Coeff-En:   0.000D+00 0.000D+00 0.000D+00 0.000D+00 0.100D+01
 Coeff:     -0.410D-01 0.815D-01-0.747D-01-0.747D-01 0.111D+01
 Gap=     0.688 Goal=   None    Shift=    0.000
 Gap=     0.659 Goal=   None    Shift=    0.000
 RMSDP=4.46D-05 MaxDP=7.42D-04 DE=-1.87D-04 OVMax= 7.10D-04

 Cycle   6  Pass 1  IDiag  1:
 E= -149.501775599033     Delta-E=       -0.000003819559 Rises=F Damp=F
 DIIS: error= 5.00D-05 at cycle   6 NSaved=   6.
 NSaved= 6 IEnMin= 6 EnMin= -149.501775599033     IErMin= 6 ErrMin= 5.00D-05
 ErrMax= 5.00D-05  0.00D+00 EMaxC= 1.00D-01 BMatC= 3.12D-07 BMatP= 9.25D-06
 IDIUse=1 WtCom= 1.00D+00 WtEn= 0.00D+00
 Coeff-Com: -0.198D-02 0.316D-02 0.157D-01-0.571D-01-0.105D+00 0.114D+01
 Coeff:     -0.198D-02 0.316D-02 0.157D-01-0.571D-01-0.105D+00 0.114D+01
 Gap=     0.688 Goal=   None    Shift=    0.000
 Gap=     0.659 Goal=   None    Shift=    0.000
 RMSDP=8.28D-06 MaxDP=1.79D-04 DE=-3.82D-06 OVMax= 1.95D-04

 Cycle   7  Pass 1  IDiag  1:
 E= -149.501775730352     Delta-E=       -0.000000131320 Rises=F Damp=F
 DIIS: error= 1.36D-05 at cycle   7 NSaved=   7.
 NSaved= 7 IEnMin= 7 EnMin= -149.501775730352     IErMin= 7 ErrMin= 1.36D-05
 ErrMax= 1.36D-05  0.00D+00 EMaxC= 1.00D-01 BMatC= 1.29D-08 BMatP= 3.12D-07
 IDIUse=1 WtCom= 1.00D+00 WtEn= 0.00D+00
 Coeff-Com:  0.198D-02-0.357D-02-0.570D-02 0.284D-01 0.360D-01-0.582D+00
 Coeff-Com:  0.152D+01
 Coeff:      0.198D-02-0.357D-02-0.570D-02 0.284D-01 0.360D-01-0.582D+00
 Coeff:      0.152D+01
 Gap=     0.688 Goal=   None    Shift=    0.000
 Gap=     0.659 Goal=   None    Shift=    0.000
 RMSDP=1.80D-06 MaxDP=2.67D-05 DE=-1.31D-07 OVMax= 5.47D-05

 Cycle   8  Pass 1  IDiag  1:
 E= -149.501775736963     Delta-E=       -0.000000006611 Rises=F Damp=F
 DIIS: error= 3.93D-06 at cycle   8 NSaved=   8.
 NSaved= 8 IEnMin= 8 EnMin= -149.501775736963     IErMin= 8 ErrMin= 3.93D-06
 ErrMax= 3.93D-06  0.00D+00 EMaxC= 1.00D-01 BMatC= 5.53D-10 BMatP= 1.29D-08
 IDIUse=1 WtCom= 1.00D+00 WtEn= 0.00D+00
 Coeff-Com: -0.831D-03 0.152D-02 0.187D-02-0.103D-01-0.144D-01 0.226D+00
 Coeff-Com: -0.712D+00 0.151D+01
 Coeff:     -0.831D-03 0.152D-02 0.187D-02-0.103D-01-0.144D-01 0.226D+00
 Coeff:     -0.712D+00 0.151D+01
 Gap=     0.688 Goal=   None    Shift=    0.000
 Gap=     0.659 Goal=   None    Shift=    0.000
 RMSDP=5.18D-07 MaxDP=7.60D-06 DE=-6.61D-09 OVMax= 9.30D-06

 Cycle   9  Pass 1  IDiag  1:
 E= -149.501775737243     Delta-E=       -0.000000000280 Rises=F Damp=F
 DIIS: error= 5.05D-07 at cycle   9 NSaved=   9.
 NSaved= 9 IEnMin= 9 EnMin= -149.501775737243     IErMin= 9 ErrMin= 5.05D-07
 ErrMax= 5.05D-07  0.00D+00 EMaxC= 1.00D-01 BMatC= 1.15D-11 BMatP= 5.53D-10
 IDIUse=1 WtCom= 1.00D+00 WtEn= 0.00D+00
 Coeff-Com:  0.138D-03-0.257D-03-0.201D-03 0.132D-02 0.231D-02-0.319D-01
 Coeff-Com:  0.109D+00-0.348D+00 0.127D+01
 Coeff:      0.138D-03-0.257D-03-0.201D-03 0.132D-02 0.231D-02-0.319D-01
 Coeff:      0.109D+00-0.348D+00 0.127D+01
 Gap=     0.688 Goal=   None    Shift=    0.000
 Gap=     0.659 Goal=   None    Shift=    0.000
 RMSDP=7.77D-08 MaxDP=1.07D-06 DE=-2.80D-10 OVMax= 1.17D-06

 Cycle  10  Pass 1  IDiag  1:
 E= -149.501775737248     Delta-E=       -0.000000000005 Rises=F Damp=F
 DIIS: error= 5.76D-08 at cycle  10 NSaved=  10.
 NSaved=10 IEnMin=10 EnMin= -149.501775737248     IErMin=10 ErrMin= 5.76D-08
 ErrMax= 5.76D-08  0.00D+00 EMaxC= 1.00D-01 BMatC= 2.68D-13 BMatP= 1.15D-11
 IDIUse=1 WtCom= 1.00D+00 WtEn= 0.00D+00
 Coeff-Com: -0.206D-04 0.401D-04-0.436D-05-0.768D-04-0.294D-03 0.285D-02
 Coeff-Com: -0.112D-01 0.560D-01-0.323D+00 0.128D+01
 Coeff:     -0.206D-04 0.401D-04-0.436D-05-0.768D-04-0.294D-03 0.285D-02
 Coeff:     -0.112D-01 0.560D-01-0.323D+00 0.128D+01
 Gap=     0.688 Goal=   None    Shift=    0.000
 Gap=     0.659 Goal=   None    Shift=    0.000
 RMSDP=1.06D-08 MaxDP=1.57D-07 DE=-5.34D-12 OVMax= 1.48D-07

 Cycle  11  Pass 1  IDiag  1:
 E= -149.501775737249     Delta-E=        0.000000000000 Rises=F Damp=F
 DIIS: error= 4.55D-09 at cycle  11 NSaved=  11.
 NSaved=11 IEnMin=11 EnMin= -149.501775737249     IErMin=11 ErrMin= 4.55D-09
 ErrMax= 4.55D-09  0.00D+00 EMaxC= 1.00D-01 BMatC= 2.51D-15 BMatP= 2.68D-13
 IDIUse=1 WtCom= 1.00D+00 WtEn= 0.00D+00
 Coeff-Com:  0.288D-05-0.574D-05 0.381D-05-0.124D-05 0.450D-04-0.249D-03
 Coeff-Com:  0.106D-02-0.799D-02 0.535D-01-0.272D+00 0.123D+01
 Coeff:      0.288D-05-0.574D-05 0.381D-05-0.124D-05 0.450D-04-0.249D-03
 Coeff:      0.106D-02-0.799D-02 0.535D-01-0.272D+00 0.123D+01
 Gap=     0.688 Goal=   None    Shift=    0.000
 Gap=     0.659 Goal=   None    Shift=    0.000
 RMSDP=8.31D-10 MaxDP=9.34D-09 DE=-1.14D-13 OVMax= 1.34D-08

 SCF Done:  E(UHF) =  -149.501775737     A.U. after   11 cycles
            NFock= 11  Conv=0.83D-09     -V/T= 2.0059
 <Sx>= 0.0000 <Sy>= 0.0000 <Sz>= 1.0000 <S**2>= 2.0483 S= 1.0160
 <L.S>= 0.000000000000E+00
 KE= 1.486259517577D+02 PE=-4.093504670416D+02 EE= 8.339812519570D+01
 Annihilation of the first spin contaminant:
 S**2 before annihilation     2.0483,   after     2.0012
 Leave Link  502 at Wed Oct 28 14:56:27 2015, MaxMem=    33554432 cpu:               0.3 elap:               0.3
 (Enter /home/gauss/gdvi03p/gdv/l801.exe)
 Range of M.O.s used for correlation:     1    50
 NBasis=    50 NAE=     9 NBE=     7 NFC=     0 NFV=     0
 NROrb=     50 NOA=     9 NOB=     7 NVA=    41 NVB=    43

 **** Warning!!: The largest alpha MO coefficient is  0.31456753D+02


 **** Warning!!: The largest beta MO coefficient is  0.32015547D+02

 Leave Link  801 at Wed Oct 28 14:56:27 2015, MaxMem=    33554432 cpu:               0.0 elap:               0.0
 (Enter /home/gauss/gdvi03p/gdv/l804.exe)
 Open-shell transformation, MDV=    33554432 ITran=3 ISComp=1.
 Unit  1 TFree=        160407 TCopy=        177691.
 Semi-Direct transformation.
 ModeAB=           4 MOrb=             9 LenV=      33334639
 LASXX=       179631 LTotXX=      179631 LenRXX=      358407
 LTotAB=      178776 MaxLAS=      327600 LenRXY=           0
 NonZer=      538038 LenScr=     1571840 LnRSAI=      327600
 LnScr1=      982016 LExtra=           0 Total=      3239863
 MaxDsk=          -1 SrtSym=           T ITran=            3
 DoSDTr:  NPSUse=  1
 JobTyp=1 Pass  1:  I=   1 to   9.
 (rs|ai) integrals will be sorted in core.
 Complete sort for first half transformation.
 First half transformation complete.
 Complete sort for second half transformation.
 Second half transformation complete.
 ModeAB=           4 MOrb=             7 LenV=      33334639
 LASXX=       116116 LTotXX=      116116 LenRXX=      140224
 LTotAB=       24108 MaxLAS=      254800 LenRXY=           0
 NonZer=      256340 LenScr=      785920 LnRSAI=      254800
 LnScr1=      785920 LExtra=           0 Total=      1966864
 MaxDsk=          -1 SrtSym=           T ITran=            3
 DoSDTr:  NPSUse=  1
 JobTyp=2 Pass  1:  I=   1 to   7.
 (rs|ai) integrals will be sorted in core.
 Complete sort for first half transformation.
 First half transformation complete.
 Complete sort for second half transformation.
 Second half transformation complete.
 Spin components of T(2) and E(2):
     alpha-alpha T2 =       0.1044214754D-01 E2=     -0.4796085613D-01
     alpha-beta  T2 =       0.6785601782D-01 E2=     -0.2594783380D+00
     beta-beta   T2 =       0.2665107792D-01 E2=     -0.6395252409D-01
 ANorm=    0.1051165659D+01
 E2 =    -0.3713917182D+00 EUMP2 =    -0.14987316745545D+03
 (S**2,0)=  0.20483D+01           (S**2,1)=  0.20124D+01
 E(PUHF)=      -0.14951295217D+03        E(PMP2)=      -0.14988025575D+03
 Leave Link  804 at Wed Oct 28 14:56:27 2015, MaxMem=    33554432 cpu:               0.3 elap:               0.3
 (Enter /home/gauss/gdvi03p/gdv/l914.exe)
 UHF ground state
 MDV=    33554432 DFT=F DoStab=F Mixed=F DoRPA=F DoScal=F NonHer=F
 Making orbital integer symmetry assigments:
 Orbital symmetries:
 Alpha Orbitals:
       Occupied  (SGG) (SGU) (SGG) (SGU) (PIU) (PIU) (SGG) (PIG)
                 (PIG)
       Virtual   (SGU) (SGG) (PIU) (PIU) (SGG) (PIG) (PIG) (SGU)
                 (SGU) (DLTG) (DLTG) (SGG) (SGG) (SGU) (PIU) (PIU)
                 (DLTU) (DLTU) (PIG) (PIG) (SGU) (PIU) (PIU) (SGG)
                 (PIG) (PIG) (SGG) (SGU) (SGU) (PIU) (PIU) (DLTG)
                 (DLTG) (DLTU) (DLTU) (SGG) (PIG) (PIG) (SGU) (SGG)
                 (SGU)
 Beta  Orbitals:
       Occupied  (SGG) (SGU) (SGG) (SGU) (SGG) (PIU) (PIU)
       Virtual   (PIG) (PIG) (SGU) (SGG) (PIU) (PIU) (SGG) (PIG)
                 (PIG) (SGU) (SGU) (DLTG) (DLTG) (SGG) (SGG) (PIU)
                 (PIU) (SGU) (DLTU) (DLTU) (PIG) (PIG) (SGU) (PIU)
                 (PIU) (SGG) (SGG) (PIG) (PIG) (SGU) (SGU) (PIU)
                 (PIU) (DLTG) (DLTG) (SGG) (DLTU) (DLTU) (PIG)
                 (PIG) (SGU) (SGG) (SGU)
 FoFJK:  IHMeth= 1 ICntrl=       0 DoSepK=F KAlg= 0 I1Cent=           0 FoldK=F
 IRaf=         0 NMat=       2 IRICut=       1 DoRegI=T DoRafI=F ISym2E= 1 IDoP0=0 IntGTp=1.
 FoFCou: FMM=F IPFlag=           0 FMFlag=      100000 FMFlg1=           0
         NFxFlg=           0 DoJE=F BraDBF=F KetDBF=F FulRan=T
         wScrn=  0.000000 ICntrl=         0 IOpCl=  1 I1Cent=           0 NGrid=           0
         NMat0=    2 NMatS0=      2 NMatT0=    0 NMatD0=    2 NMtDS0=    0 NMtDT0=    0
 Petite list used in FoFCou.
    96 initial guesses have been made.
 Convergence on wavefunction:    0.001000000000000
 Davidson Disk Diagonalization:  ConvIn= 1.00D-03 SkipCon=T Conv= 1.00D-03.
 Max sub-space:   384 roots to seek:    96 dimension of matrix:          670
 Iteration     1 Dimension    96 NMult     0 NNew     96
 New state      1 was old state      3
 New state      2 was old state      1
 New state      3 was old state      4
 New state      4 was old state      5
 New state      5 was old state      6
 New state      6 was old state      2
 New state      7 was old state      8
 New state      8 was old state      7
 New state      9 was old state     10
 New state     10 was old state      9
 New state     11 was old state     13
 New state     12 was old state     14
 Excitation Energies [eV] at current iteration:
 Root      1 :     4.692650372139245
 Root      2 :     4.692650372139258
 Root      3 :     4.861154076133995
 Root      4 :     8.120922601806898
 Root      5 :     8.120922601807049
 Root      6 :     8.873335239207000
 Root      7 :    11.546396275567960
 Root      8 :    11.546396275567980
 Root      9 :    12.324868462240640
 Root     10 :    12.324868462240650
 Root     11 :    12.705681554898220
 Root     12 :    12.705681554898340
 Root     13 :    13.380870407047930
 Root     14 :    13.380870407048290
 Root     15 :    13.885807220601350
 Root     16 :    13.885807220601380
 Root     17 :    14.040988716655560
 Root     18 :    14.049471250149810
 Root     19 :    14.361319041431340
 Root     20 :    14.361319041431350
 Root     21 :    14.417348107533730
 Root     22 :    14.417348107534120
 Root     23 :    14.547731192542830
 Root     24 :    14.555851618198160
 Root     25 :    15.593078404185500
 Root     26 :    15.593078404185500
 Root     27 :    15.887273970413330
 Root     28 :    15.887273970413390
 Root     29 :    15.908429902221400
 Root     30 :    15.908429902221400
 Root     31 :    16.005054121856540
 Root     32 :    16.153143860584010
 Root     33 :    16.153143860584260
 Root     34 :    16.200085301578040
 Root     35 :    16.313127213411670
 Root     36 :    16.458207791767360
 Root     37 :    16.458207791767440
 Root     38 :    16.542626242576200
 Root     39 :    16.630730977987260
 Root     40 :    16.630730977987290
 Root     41 :    16.739281302206910
 Root     42 :    16.787001646017750
 Root     43 :    17.730564759573380
 Root     44 :    18.224233885828810
 Root     45 :    18.437570343887790
 Root     46 :    18.437570343895090
 Root     47 :    18.536047650889800
 Root     48 :    18.536047650890040
 Root     49 :    19.034750367406030
 Root     50 :    19.034750367412650
 Root     51 :    19.230945602675310
 Root     52 :    19.230945602675440
 Root     53 :    19.408350710424880
 Root     54 :    19.423181200854800
 Root     55 :    19.586584564201270
 Root     56 :    19.586584564201480
 Root     57 :    19.993441752863030
 Root     58 :    19.993441752863300
 Root     59 :    20.334455076655520
 Root     60 :    20.334455076655540
 Root     61 :    20.384378756923130
 Root     62 :    20.384378756924120
 Root     63 :    20.515855299733000
 Root     64 :    20.515855299733000
 Root     65 :    20.554853008941670
 Root     66 :    20.554853008941730
 Root     67 :    21.141681806701750
 Root     68 :    21.311951324513700
 Root     69 :    21.311951324513770
 Root     70 :    21.521435812669830
 Root     71 :    21.521435812670100
 Root     72 :    21.625224886095130
 Root     73 :    21.625224886095140
 Root     74 :    21.771905077095740
 Root     75 :    22.057572177715690
 Root     76 :    22.057572177716230
 Root     77 :    22.093854140937610
 Root     78 :    22.143639431091400
 Root     79 :    22.836356741867840
 Root     80 :    22.836356741868210
 Root     81 :    22.889303950264270
 Root     82 :    22.889303950264370
 Root     83 :    23.401076313257350
 Root     84 :    23.432103420361020
 Root     85 :    23.432103420361050
 Root     86 :    23.703734052423380
 Root     87 :    23.703734052423390
 Root     88 :    23.787248421312010
 Root     89 :    24.147718986787690
 Root     90 :    24.190642976104120
 Root     91 :    24.515458974384240
 Root     92 :    24.515458974384270
 Root     93 :    25.454379386722870
 Root     94 :    25.717371403048020
 Root     95 :    25.717371403048090
 Root     96 :    29.596350919364430
 Iteration     2 Dimension   192 NMult    96 NNew     96
 Root      1 not converged, maximum delta is    0.164310706424485
 Root      2 not converged, maximum delta is    0.164310706424373
 Root      3 not converged, maximum delta is    0.015890303374463
 Root      4 not converged, maximum delta is    0.176833807585584
 Root      5 not converged, maximum delta is    0.176833807585583
 Root      6 not converged, maximum delta is    0.054635944624500
 Root      7 not converged, maximum delta is    0.176933590612377
 Root      8 not converged, maximum delta is    0.176933590612381
 Root      9 not converged, maximum delta is    0.360639500374842
 Root     10 not converged, maximum delta is    0.360639500374840
 Root     11 not converged, maximum delta is    0.020887843508249
 Root     12 not converged, maximum delta is    0.020887843508248
 Excitation Energies [eV] at current iteration:
 Root      1 :     4.591073832271572   Change is   -0.101576539867673
 Root      2 :     4.591073832271572   Change is   -0.101576539867685
 Root      3 :     4.829611461793821   Change is   -0.031542614340174
 Root      4 :     7.801720400114243   Change is   -0.319202201692655
 Root      5 :     7.801720400114358   Change is   -0.319202201692691
 Root      6 :     7.975580017029776   Change is   -0.897755222177224
 Root      7 :    11.367487670862230   Change is   -0.178908604705725
 Root      8 :    11.367487670862230   Change is   -0.178908604705749
 Root      9 :    12.221505547716770   Change is   -0.103362914523867
 Root     10 :    12.221505547716780   Change is   -0.103362914523873
 Root     11 :    12.662300317626490   Change is   -0.043381237271732
 Root     12 :    12.662300317626630   Change is   -0.043381237271702
 Root     13 :    13.323832661394490   Change is   -0.057037745653445
 Root     14 :    13.323832661394850   Change is   -0.057037745653439
 Root     15 :    13.822617801635190   Change is   -0.063189418966197
 Root     16 :    13.822617801635220   Change is   -0.063189418966131
 Root     17 :    13.872675747142580   Change is   -0.176795503007233
 Root     18 :    14.005490232496940   Change is   -0.035498484158619
 Root     19 :    14.317795178677890   Change is   -0.229936013864938
 Root     20 :    14.335766337430780   Change is   -0.025552704000558
 Root     21 :    14.335766337430780   Change is   -0.025552704000564
 Root     22 :    14.336372252391870   Change is   -0.080975855141857
 Root     23 :    14.336372252392200   Change is   -0.080975855141917
 Root     24 :    14.546268234875050   Change is   -0.009583383323117
 Root     25 :    15.540838166204920   Change is   -0.052240237980584
 Root     26 :    15.540838166204930   Change is   -0.052240237980566
 Root     27 :    15.775477026119920   Change is   -0.111796944293474
 Root     28 :    15.775477026119960   Change is   -0.111796944293365
 Root     29 :    15.866658327121740   Change is   -0.041771575099663
 Root     30 :    15.866658327121770   Change is   -0.041771575099632
 Root     31 :    15.918733224023540   Change is   -0.394393989388125
 Root     32 :    15.981089606453960   Change is   -0.023964515402578
 Root     33 :    16.000193233899210   Change is   -0.199892067678827
 Root     34 :    16.019381581264150   Change is   -0.438826210503214
 Root     35 :    16.019381581264170   Change is   -0.438826210503269
 Root     36 :    16.024195594991580   Change is   -0.128948265592423
 Root     37 :    16.024195594991820   Change is   -0.128948265592441
 Root     38 :    16.443742304667620   Change is   -0.098883937908581
 Root     39 :    16.512082631741110   Change is   -0.274919014276644
 Root     40 :    16.617007766315960   Change is   -0.013723211671295
 Root     41 :    16.617007766315990   Change is   -0.013723211671301
 Root     42 :    16.732459029125040   Change is   -0.006822273081869
 Root     43 :    17.468393239737150   Change is   -0.262171519836238
 Root     44 :    18.041957848168040   Change is   -0.182276037660769
 Root     45 :    18.193789318545400   Change is   -0.342258332344395
 Root     46 :    18.193789318545810   Change is   -0.342258332344232
 Root     47 :    18.384558814917330   Change is   -0.053011528970461
 Root     48 :    18.384558814924020   Change is   -0.053011528971077
 Root     49 :    19.010647447379240   Change is   -0.024102920026788
 Root     50 :    19.010647447385550   Change is   -0.024102920027090
 Root     51 :    19.035440136155250   Change is   -0.195505466520062
 Root     52 :    19.035440136155550   Change is   -0.195505466519886
 Root     53 :    19.120293534192350   Change is   -0.302887666662447
 Root     54 :    19.180010588596280   Change is   -0.228340121828605
 Root     55 :    19.509774720292100   Change is   -0.076809843909163
 Root     56 :    19.509774720292480   Change is   -0.076809843908994
 Root     57 :    19.958635765366960   Change is   -0.034805987496067
 Root     58 :    19.958635765367280   Change is   -0.034805987496025
 Root     59 :    20.195350153154130   Change is   -0.139104923501404
 Root     60 :    20.195350153154160   Change is   -0.139104923501368
 Root     61 :    20.271362990540380   Change is   -0.113015766382750
 Root     62 :    20.271362990541520   Change is   -0.113015766382605
 Root     63 :    20.325910983550660   Change is   -0.228942025391004
 Root     64 :    20.325910983550740   Change is   -0.228942025390998
 Root     65 :    20.505616658701750   Change is   -0.010238641031250
 Root     66 :    20.505616658701800   Change is   -0.010238641031208
 Root     67 :    21.017701046977550   Change is   -0.294250277536156
 Root     68 :    21.017701046977580   Change is   -0.294250277536186
 Root     69 :    21.021831471736860   Change is   -0.119850334964893
 Root     70 :    21.435775469585580   Change is   -0.085660343084252
 Root     71 :    21.435775469585840   Change is   -0.085660343084252
 Root     72 :    21.545839601220430   Change is   -0.079385284874697
 Root     73 :    21.545839601220460   Change is   -0.079385284874679
 Root     74 :    21.766977695288250   Change is   -0.004927381807494
 Root     75 :    21.779909602919860   Change is   -0.313944538017746
 Root     76 :    21.929665355575900   Change is   -0.127906822139790
 Root     77 :    21.929665355576300   Change is   -0.127906822139923
 Root     78 :    21.977351219775210   Change is   -0.166288211316192
 Root     79 :    22.641970866969230   Change is   -0.194385874898609
 Root     80 :    22.641970866969730   Change is   -0.194385874898489
 Root     81 :    22.785485369585780   Change is   -0.103818580678486
 Root     82 :    22.785485369585840   Change is   -0.103818580678529
 Root     83 :    23.008235032312840   Change is   -0.392841280944503
 Root     84 :    23.206766285480490   Change is   -0.225337134880526
 Root     85 :    23.206766285480520   Change is   -0.225337134880526
 Root     86 :    23.608651810919220   Change is   -0.095082241504158
 Root     87 :    23.608651810919260   Change is   -0.095082241504128
 Root     88 :    23.707962869819610   Change is   -0.079285551492407
 Root     89 :    23.847280640209720   Change is   -0.300438346577974
 Root     90 :    24.033347787471360   Change is   -0.157295188632750
 Root     91 :    24.378696687612660   Change is   -0.136762286771576
 Root     92 :    24.378696687612680   Change is   -0.136762286771588
 Root     93 :    24.409412855776290   Change is   -1.044966530946584
 Root     94 :    24.590646992404170   Change is   -5.005703926960265
 Root     95 :    25.482134340427400   Change is   -0.235237062620682
 Root     96 :    25.482134340427610   Change is   -0.235237062620404
 Iteration     3 Dimension   204 NMult   192 NNew     12
 DSYEVD-2 returned Info=         409 IAlg= 4 N=   204 NDim=   204 NE2=      161719 trying  DSYEV.
 New state      1 was old state      2
 Root      1 not converged, maximum delta is    0.400662460686979
 New state      2 was old state      1
 Root      2 not converged, maximum delta is    0.400662460687182
 Root      3 has converged.
 Root      4 not converged, maximum delta is    0.167700155581073
 Root      5 not converged, maximum delta is    0.167700155581073
 Root      6 not converged, maximum delta is    0.004162328145044
 Root      7 not converged, maximum delta is    0.166812153262342
 Root      8 not converged, maximum delta is    0.166812153262347
 Root      9 not converged, maximum delta is    0.452758559170098
 Root     10 not converged, maximum delta is    0.452758559170095
 Root     11 not converged, maximum delta is    0.008080771431556
 Root     12 not converged, maximum delta is    0.008080771431557
 Excitation Energies [eV] at current iteration:
 Root      1 :     4.590616662119234   Change is   -0.000457170152338
 Root      2 :     4.590616662119246   Change is   -0.000457170152326
 Root      3 :     4.829606895441853   Change is   -0.000004566351968
 Root      4 :     7.799243073737023   Change is   -0.002477326377220
 Root      5 :     7.799243073737176   Change is   -0.002477326377182
 Root      6 :     7.967922259126722   Change is   -0.007657757903054
 Root      7 :    11.366628695637200   Change is   -0.000858975225034
 Root      8 :    11.366628695637280   Change is   -0.000858975224950
 Root      9 :    12.220705710542600   Change is   -0.000799837174167
 Root     10 :    12.220705710542660   Change is   -0.000799837174119
 Root     11 :    12.662089551602160   Change is   -0.000210766024332
 Root     12 :    12.662089551602350   Change is   -0.000210766024281
 Iteration     4 Dimension   215 NMult   204 NNew     11
 DSYEVD-2 returned Info=       23543 IAlg= 4 N=   215 NDim=   215 NE2=      153445 trying  DSYEV.
 New state      1 was old state      2
 Root      1 not converged, maximum delta is    0.155349319091360
 New state      2 was old state      1
 Root      2 not converged, maximum delta is    0.155349319091426
 Root      3 has converged.
 Root      4 not converged, maximum delta is    0.169813105471501
 Root      5 not converged, maximum delta is    0.169813105471502
 Root      6 has converged.
 Root      7 not converged, maximum delta is    0.005857074451954
 Root      8 not converged, maximum delta is    0.005857074451953
 New state      9 was old state     10
 Root      9 not converged, maximum delta is    0.257560436497081
 New state     10 was old state      9
 Root     10 not converged, maximum delta is    0.257560436497083
 Root     11 not converged, maximum delta is    0.034107564593623
 Root     12 not converged, maximum delta is    0.034107564593623
 Excitation Energies [eV] at current iteration:
 Root      1 :     4.590613617519420   Change is   -0.000003044599826
 Root      2 :     4.590613617519442   Change is   -0.000003044599792
 Root      3 :     4.829606895441894   Change is    0.000000000000041
 Root      4 :     7.799205469287410   Change is   -0.000037604449614
 Root      5 :     7.799205469287518   Change is   -0.000037604449658
 Root      6 :     7.967837374001158   Change is   -0.000084885125563
 Root      7 :    11.366619443582320   Change is   -0.000009252054882
 Root      8 :    11.366619443582380   Change is   -0.000009252054906
 Root      9 :    12.220697480191840   Change is   -0.000008230350814
 Root     10 :    12.220697480191930   Change is   -0.000008230350668
 Root     11 :    12.662088102656880   Change is   -0.000001448945275
 Root     12 :    12.662088102656950   Change is   -0.000001448945400
 Iteration     5 Dimension   225 NMult   215 NNew     10
 DSYEVD-2 returned Info=       25763 IAlg= 4 N=   225 NDim=   225 NE2=      146625 trying  DSYEV.
 New state      1 was old state      2
 Root      1 not converged, maximum delta is    0.106717883977595
 New state      2 was old state      1
 Root      2 not converged, maximum delta is    0.106717883977431
 Root      3 has converged.
 Root      4 not converged, maximum delta is    0.263468346982559
 Root      5 not converged, maximum delta is    0.263468346982560
 Root      6 has converged.
 Root      7 not converged, maximum delta is    0.029687370745348
 Root      8 not converged, maximum delta is    0.029687370745348
 Root      9 not converged, maximum delta is    0.067722550106325
 Root     10 not converged, maximum delta is    0.067722550106326
 Root     11 not converged, maximum delta is    0.032976144461461
 Root     12 not converged, maximum delta is    0.032976144461462
 Excitation Energies [eV] at current iteration:
 Root      1 :     4.590613573583032   Change is   -0.000000043936410
 Root      2 :     4.590613573583043   Change is   -0.000000043936377
 Root      3 :     4.829606895441883   Change is   -0.000000000000011
 Root      4 :     7.799205241746463   Change is   -0.000000227540946
 Root      5 :     7.799205241746603   Change is   -0.000000227540915
 Root      6 :     7.967837374001157   Change is   -0.000000000000002
 Root      7 :    11.366619392841910   Change is   -0.000000050740410
 Root      8 :    11.366619392841960   Change is   -0.000000050740414
 Root      9 :    12.220697414550890   Change is   -0.000000065640949
 Root     10 :    12.220697414550900   Change is   -0.000000065641031
 Root     11 :    12.662088092799400   Change is   -0.000000009857482
 Root     12 :    12.662088092799520   Change is   -0.000000009857432
 Iteration     6 Dimension   227 NMult   225 NNew      2
 DSYEVD-2 returned Info=       39215 IAlg= 4 N=   227 NDim=   227 NE2=      145333 trying  DSYEV.
 Root      1 not converged, maximum delta is    0.192028228536962
 Root      2 not converged, maximum delta is    0.192028228536829
 Root      3 has converged.
 Root      4 not converged, maximum delta is    0.100107549051047
 Root      5 not converged, maximum delta is    0.100107549051047
 Root      6 has converged.
 New state      7 was old state      8
 Root      7 not converged, maximum delta is    0.061943769799474
 New state      8 was old state      7
 Root      8 not converged, maximum delta is    0.061943769799470
 New state      9 was old state     10
 Root      9 not converged, maximum delta is    0.304696511388048
 New state     10 was old state      9
 Root     10 not converged, maximum delta is    0.304696511388046
 Root     11 not converged, maximum delta is    0.003952720802789
 Root     12 not converged, maximum delta is    0.003952720802789
 Excitation Energies [eV] at current iteration:
 Root      1 :     4.590613573583003   Change is   -0.000000000000029
 Root      2 :     4.590613573583032   Change is   -0.000000000000011
 Root      3 :     4.829606895441844   Change is   -0.000000000000039
 Root      4 :     7.799205240283211   Change is   -0.000000001463253
 Root      5 :     7.799205240283368   Change is   -0.000000001463234
 Root      6 :     7.967837374001201   Change is    0.000000000000044
 Root      7 :    11.366619392841930   Change is   -0.000000000000030
 Root      8 :    11.366619392841980   Change is    0.000000000000073
 Root      9 :    12.220697414213760   Change is   -0.000000000337142
 Root     10 :    12.220697414213800   Change is   -0.000000000337091
 Root     11 :    12.662088092799310   Change is   -0.000000000000094
 Root     12 :    12.662088092799450   Change is   -0.000000000000069
 Convergence achieved on expansion vectors.
 ***********************************************************************
 Excited states from <AA,BB:AA,BB> singles matrix:
 ***********************************************************************
 
 ExtSpn:  IState=     1 X2= 1.000 Y2= 0.000 X2-Y2-1= 6.66D-16
          S2Grnd=  2.048 Ra=  0.000 Rb= -0.012 T= -0.001 S2Ext= -0.012 S2=  2.036
 ExtSpn:  IState=     2 X2= 1.000 Y2= 0.000 X2-Y2-1= 1.11D-15
          S2Grnd=  2.048 Ra=  0.000 Rb= -0.012 T= -0.001 S2Ext= -0.012 S2=  2.036
 ExtSpn:  IState=     3 X2= 1.000 Y2= 0.000 X2-Y2-1= 5.77D-15
          S2Grnd=  2.048 Ra=  0.000 Rb= -0.012 T=  0.000 S2Ext= -0.012 S2=  2.036
 ExtSpn:  IState=     4 X2= 1.000 Y2= 0.000 X2-Y2-1=-2.44D-15
          S2Grnd=  2.048 Ra=  0.001 Rb=  0.009 T=  0.002 S2Ext=  0.012 S2=  2.060
 ExtSpn:  IState=     5 X2= 1.000 Y2= 0.000 X2-Y2-1= 5.33D-15
          S2Grnd=  2.048 Ra=  0.001 Rb=  0.009 T=  0.002 S2Ext=  0.012 S2=  2.060
 ExtSpn:  IState=     6 X2= 1.000 Y2= 0.000 X2-Y2-1=-4.88D-15
          S2Grnd=  2.048 Ra=  0.078 Rb=  0.028 T= -0.106 S2Ext=  0.000 S2=  2.048
 ExtSpn:  IState=     7 X2= 1.000 Y2= 0.000 X2-Y2-1= 6.66D-16
          S2Grnd=  2.048 Ra= -0.002 Rb=  0.003 T=  0.003 S2Ext=  0.004 S2=  2.052
 ExtSpn:  IState=     8 X2= 1.000 Y2= 0.000 X2-Y2-1= 2.44D-15
          S2Grnd=  2.048 Ra= -0.002 Rb=  0.003 T=  0.003 S2Ext=  0.004 S2=  2.052
 ExtSpn:  IState=     9 X2= 1.000 Y2= 0.000 X2-Y2-1= 4.44D-16
          S2Grnd=  2.048 Ra=  0.013 Rb=  0.007 T=  0.013 S2Ext=  0.033 S2=  2.081
 ExtSpn:  IState=    10 X2= 1.000 Y2= 0.000 X2-Y2-1= 2.89D-15
          S2Grnd=  2.048 Ra=  0.013 Rb=  0.007 T=  0.013 S2Ext=  0.033 S2=  2.081
 ExtSpn:  IState=    11 X2= 1.000 Y2= 0.000 X2-Y2-1=-3.11D-15
          S2Grnd=  2.048 Ra=  0.002 Rb=  0.969 T=  0.064 S2Ext=  1.034 S2=  3.083
 ExtSpn:  IState=    12 X2= 1.000 Y2= 0.000 X2-Y2-1= 1.55D-15
          S2Grnd=  2.048 Ra=  0.002 Rb=  0.969 T=  0.064 S2Ext=  1.034 S2=  3.083
 1PDM for each excited state written to RWF  633
 Ground to excited state transition densities written to RWF  633
 Ground to excited state transition electric dipole moments (Au):
       state          X           Y           Z        Dip. S.      Osc.
         1         0.0000      0.0000      0.0000      0.0000      0.0000
         2         0.0000      0.0000      0.0000      0.0000      0.0000
         3         0.0000      0.0000      0.0000      0.0000      0.0000
         4         0.0000      0.0000      0.0000      0.0000      0.0000
         5         0.0000      0.0000      0.0000      0.0000      0.0000
         6         0.0000      0.0000     -1.0597      1.1230      0.2192
         7        -0.0091      0.0733      0.0000      0.0055      0.0015
         8         0.0733      0.0091      0.0000      0.0055      0.0015
         9         0.0000      0.0000      0.0000      0.0000      0.0000
        10         0.0000      0.0000      0.0000      0.0000      0.0000
        11        -0.0012     -0.4432      0.0000      0.1964      0.0609
        12        -0.4432      0.0012      0.0000      0.1964      0.0609
 Ground to excited state transition velocity dipole moments (Au):
       state          X           Y           Z        Dip. S.      Osc.
         1         0.0000      0.0000      0.0000      0.0000      0.0000
         2         0.0000      0.0000      0.0000      0.0000      0.0000
         3         0.0000      0.0000      0.0000      0.0000      0.0000
         4         0.0000      0.0000      0.0000      0.0000      0.0000
         5         0.0000      0.0000      0.0000      0.0000      0.0000
         6         0.0000      0.0000      0.0664      0.0044      0.0100
         7         0.0117     -0.0949      0.0000      0.0091      0.0146
         8        -0.0949     -0.0117      0.0000      0.0091      0.0146
         9         0.0000      0.0000      0.0000      0.0000      0.0000
        10         0.0000      0.0000      0.0000      0.0000      0.0000
        11         0.0005      0.1921      0.0000      0.0369      0.0529
        12         0.1921     -0.0005      0.0000      0.0369      0.0529
 Ground to excited state transition magnetic dipole moments (Au):
       state          X           Y           Z
         1         0.0000      0.0000      0.0000
         2         0.0000      0.0000      0.0000
         3         0.0000      0.0000      0.0000
         4        -0.0030      1.0580      0.0000
         5        -1.0580     -0.0030      0.0000
         6         0.0000      0.0000      0.0000
         7         0.0000      0.0000      0.0000
         8         0.0000      0.0000      0.0000
         9        -0.0567      0.4770      0.0000
        10        -0.4770     -0.0567      0.0000
        11         0.0000      0.0000      0.0000
        12         0.0000      0.0000      0.0000
 Ground to excited state transition velocity quadrupole moments (Au):
       state          XX          YY          ZZ          XY          XZ          YZ
         1         0.0000      0.0000      0.0000      0.0000      0.0000      0.0000
         2         0.0000      0.0000      0.0000      0.0000      0.0000      0.0000
         3         0.0000      0.0000      0.0000      0.0000      0.0000      0.0000
         4         0.0000      0.0000      0.0000      0.0000      0.1258      0.0004
         5         0.0000      0.0000      0.0000      0.0000     -0.0004      0.1258
         6         0.0000      0.0000      0.0000      0.0000      0.0000      0.0000
         7         0.0000      0.0000      0.0000      0.0000      0.0000      0.0000
         8         0.0000      0.0000      0.0000      0.0000      0.0000      0.0000
         9         0.0000      0.0000      0.0000      0.0000      0.3115      0.0370
        10         0.0000      0.0000      0.0000      0.0000     -0.0370      0.3115
        11         0.0000      0.0000      0.0000      0.0000      0.0000      0.0000
        12         0.0000      0.0000      0.0000      0.0000      0.0000      0.0000
 <0|del|b> * <b|rxdel|0> + <0|del|b> * <b|delr+rdel|0>
 Rotatory Strengths (R) in cgs (10**-40 erg-esu-cm/Gauss)
       state          XX          YY          ZZ    R(velocity)    E-M Angle
         1         0.0000      0.0000      0.0000      0.0000       90.00
         2         0.0000      0.0000      0.0000      0.0000       90.00
         3         0.0000      0.0000      0.0000      0.0000       90.00
         4         0.0000      0.0000      0.0000      0.0000       90.00
         5         0.0000      0.0000      0.0000      0.0000       90.00
         6         0.0000      0.0000      0.0000      0.0000       90.00
         7         0.0000      0.0000      0.0000      0.0000       90.00
         8         0.0000      0.0000      0.0000      0.0000       90.00
         9         0.0000      0.0000      0.0000      0.0000       90.00
        10         0.0000      0.0000      0.0000      0.0000       90.00
        11         0.0000      0.0000      0.0000      0.0000       90.00
        12         0.0000      0.0000      0.0000      0.0000       90.00
 1/2[<0|r|b>*<b|rxdel|0> + (<0|rxdel|b>*<b|r|0>)*]
 Rotatory Strengths (R) in cgs (10**-40 erg-esu-cm/Gauss)
       state          XX          YY          ZZ     R(length)
         1         0.0000      0.0000      0.0000      0.0000
         2         0.0000      0.0000      0.0000      0.0000
         3         0.0000      0.0000      0.0000      0.0000
         4         0.0000      0.0000      0.0000      0.0000
         5         0.0000      0.0000      0.0000      0.0000
         6         0.0000      0.0000      0.0000      0.0000
         7         0.0000      0.0000      0.0000      0.0000
         8         0.0000      0.0000      0.0000      0.0000
         9         0.0000      0.0000      0.0000      0.0000
        10         0.0000      0.0000      0.0000      0.0000
        11         0.0000      0.0000      0.0000      0.0000
        12         0.0000      0.0000      0.0000      0.0000
  1/2[<0|del|b>*<b|r|0> + (<0|r|b>*<b|del|0>)*] (Au)
       state          X           Y           Z        Dip. S.   Osc.(frdel)
         1         0.0000      0.0000      0.0000      0.0000      0.0000
         2         0.0000      0.0000      0.0000      0.0000      0.0000
         3         0.0000      0.0000      0.0000      0.0000      0.0000
         4         0.0000      0.0000      0.0000      0.0000      0.0000
         5         0.0000      0.0000      0.0000      0.0000      0.0000
         6         0.0000      0.0000     -0.0703      0.0703      0.0469
         7        -0.0001     -0.0070      0.0000      0.0071      0.0047
         8        -0.0070     -0.0001      0.0000      0.0071      0.0047
         9         0.0000      0.0000      0.0000      0.0000      0.0000
        10         0.0000      0.0000      0.0000      0.0000      0.0000
        11         0.0000     -0.0851      0.0000      0.0851      0.0568
        12        -0.0851      0.0000      0.0000      0.0851      0.0568

 Excitation energies and oscillator strengths:
 
 Excited state symmetry could not be determined.
 Excited State   1:  3.024-?Sym    4.5906 eV  270.08 nm  f=0.0000  <S**2>=2.036
      6B ->  8B       -0.47279
      6B ->  9B        0.47507
      6B -> 15B        0.14814
      6B -> 16B       -0.14886
      7B ->  8B        0.47507
      7B ->  9B        0.47279
      7B -> 15B       -0.14886
      7B -> 16B       -0.14814
 This state for optimization and/or second-order correction.
 Total Energy, E(CIS) =  -149.333073793    
 Copying the excited state density for this state as the 1-particle RhoCI density.
 
 Excited state symmetry could not be determined.
 Excited State   2:  3.024-?Sym    4.5906 eV  270.08 nm  f=0.0000  <S**2>=2.036
      6B ->  8B       -0.47507
      6B ->  9B       -0.47279
      6B -> 15B        0.14886
      6B -> 16B        0.14814
      7B ->  8B       -0.47279
      7B ->  9B        0.47507
      7B -> 15B        0.14814
      7B -> 16B       -0.14886
 
 LASSW sees vector with all elements less than  0.100000000000E-03
 LASSW sees vector with all elements less than  0.100000000000E-03
 Excited state symmetry could not be determined.
 Excited State   3:  3.024-?Sym    4.8296 eV  256.72 nm  f=0.0000  <S**2>=2.036
      6B ->  9B       -0.67115
      6B -> 16B        0.20926
      7B ->  8B        0.67115
      7B -> 15B       -0.20926
 
 Excited state symmetry could not be determined.
 Excited State   4:  3.040-?Sym    7.7992 eV  158.97 nm  f=0.0000  <S**2>=2.060
      5B ->  8B        0.93948
      5B -> 15B       -0.30332
      5B -> 29B        0.10178
 
 Excited state symmetry could not be determined.
 Excited State   5:  3.040-?Sym    7.7992 eV  158.97 nm  f=0.0000  <S**2>=2.060
      5B ->  9B        0.93948
      5B -> 16B       -0.30332
      5B -> 28B        0.10178
 
 Excited State   6:  3.032-SGU    7.9678 eV  155.61 nm  f=0.2192  <S**2>=2.048
      7A -> 18A        0.20860
      7A -> 23A       -0.12449
      8A -> 13A        0.11560
      9A -> 12A        0.11560
      5B -> 18B        0.12402
      6B ->  8B        0.63177
      6B -> 15B       -0.16001
      7B ->  9B        0.63177
      7B -> 16B       -0.16001
 
 Excited state symmetry could not be determined.
 Excited State   7:  3.035-?Sym   11.3666 eV  109.08 nm  f=0.0015  <S**2>=2.052
      9A -> 10A        0.57528
      9A -> 17A       -0.28455
      9A -> 18A        0.69294
      9A -> 23A       -0.24216
      4B ->  9B       -0.11395
 
 Excited state symmetry could not be determined.
 Excited State   8:  3.035-?Sym   11.3666 eV  109.08 nm  f=0.0015  <S**2>=2.052
      8A -> 10A        0.57528
      8A -> 17A       -0.28455
      8A -> 18A        0.69294
      8A -> 23A       -0.24216
      4B ->  8B       -0.11395
 
 Excited state symmetry could not be determined.
 Excited State   9:  3.054-?Sym   12.2207 eV  101.45 nm  f=0.0000  <S**2>=2.081
      8A -> 11A        0.94759
      8A -> 14A       -0.17420
      8A -> 21A       -0.18497
      9A -> 11A        0.11271
 
 Excited state symmetry could not be determined.
 Excited State  10:  3.054-?Sym   12.2207 eV  101.45 nm  f=0.0000  <S**2>=2.081
      8A -> 11A       -0.11271
      9A -> 11A        0.94759
      9A -> 14A       -0.17420
      9A -> 21A       -0.18497
 
 Excited state symmetry could not be determined.
 Excited State  11:  3.651-?Sym   12.6621 eV   97.92 nm  f=0.0609  <S**2>=3.083
      7B -> 11B        0.95307
      7B -> 14B       -0.21959
      7B -> 21B       -0.16746
 
 Excited state symmetry could not be determined.
 Excited State  12:  3.651-?Sym   12.6621 eV   97.92 nm  f=0.0609  <S**2>=3.083
      6B -> 11B        0.95307
      6B -> 14B       -0.21959
      6B -> 21B       -0.16746
 SavETr:  write IOETrn=   770 NScale= 10 NData=  16 NLR=1 NState=   12 LETran=     226.
 Leave Link  914 at Wed Oct 28 14:56:28 2015, MaxMem=    33554432 cpu:               0.5 elap:               0.5
 (Enter /home/gauss/gdvi03p/gdv/l601.exe)
 Copying SCF densities to generalized density rwf, IOpCl= 1 IROHF=0.

 **********************************************************************

            Population analysis using the SCF density.

 **********************************************************************

 Orbital symmetries:
 Alpha Orbitals:
       Occupied  (SGG) (SGU) (SGG) (SGU) (PIU) (PIU) (SGG) (PIG)
                 (PIG)
       Virtual   (SGU) (SGG) (PIU) (PIU) (SGG) (PIG) (PIG) (SGU)
                 (SGU) (DLTG) (DLTG) (SGG) (SGG) (SGU) (PIU) (PIU)
                 (DLTU) (DLTU) (PIG) (PIG) (SGU) (PIU) (PIU) (SGG)
                 (PIG) (PIG) (SGG) (SGU) (SGU) (PIU) (PIU) (DLTG)
                 (DLTG) (DLTU) (DLTU) (SGG) (PIG) (PIG) (SGU) (SGG)
                 (SGU)
 Beta  Orbitals:
       Occupied  (SGG) (SGU) (SGG) (SGU) (SGG) (PIU) (PIU)
       Virtual   (PIG) (PIG) (SGU) (SGG) (PIU) (PIU) (SGG) (PIG)
                 (PIG) (SGU) (SGU) (DLTG) (DLTG) (SGG) (SGG) (PIU)
                 (PIU) (SGU) (DLTU) (DLTU) (PIG) (PIG) (SGU) (PIU)
                 (PIU) (SGG) (SGG) (PIG) (PIG) (SGU) (SGU) (PIU)
                 (PIU) (DLTG) (DLTG) (SGG) (DLTU) (DLTU) (PIG)
                 (PIG) (SGU) (SGG) (SGU)
 The electronic state is 3-SGG.
 Alpha  occ. eigenvalues --  -20.77395 -20.77342  -1.70438  -1.19290  -0.85152
 Alpha  occ. eigenvalues --   -0.85152  -0.77419  -0.57262  -0.57262
 Alpha virt. eigenvalues --    0.11566   0.11888   0.18232   0.18232   0.21632
 Alpha virt. eigenvalues --    0.21923   0.21923   0.30706   0.42286   0.50185
 Alpha virt. eigenvalues --    0.50185   0.54935   0.67344   0.67888   0.68879
 Alpha virt. eigenvalues --    0.68879   0.70446   0.70446   0.71924   0.71924
 Alpha virt. eigenvalues --    0.81731   1.25406   1.25406   1.71941   1.72268
 Alpha virt. eigenvalues --    1.72268   1.77414   1.81390   2.02419   2.57777
 Alpha virt. eigenvalues --    2.57777   2.88045   2.88045   3.09862   3.09862
 Alpha virt. eigenvalues --    3.11521   3.64818   3.64818   4.53094   6.77773
 Alpha virt. eigenvalues --    7.20987
  Beta  occ. eigenvalues --  -20.71826 -20.71724  -1.57235  -0.98276  -0.70970
  Beta  occ. eigenvalues --   -0.58043  -0.58043
  Beta virt. eigenvalues --    0.07888   0.07888   0.11932   0.12111   0.19443
  Beta virt. eigenvalues --    0.19443   0.21395   0.24685   0.24685   0.31334
  Beta virt. eigenvalues --    0.47829   0.50143   0.50143   0.55282   0.67733
  Beta virt. eigenvalues --    0.69981   0.69981   0.70743   0.71860   0.71860
  Beta virt. eigenvalues --    0.75961   0.75961   0.83398   1.36731   1.36731
  Beta virt. eigenvalues --    1.72527   1.80420   1.81491   1.81491   1.83207
  Beta virt. eigenvalues --    2.05753   2.64642   2.64642   2.99944   2.99944
  Beta virt. eigenvalues --    3.18739   3.24234   3.24234   3.72762   3.72762
  Beta virt. eigenvalues --    4.57582   6.83764   7.26963
          Condensed to atoms (all electrons):
               1          2
     1  O    7.855047   0.144953
     2  O    0.144953   7.855047
          Atomic-Atomic Spin Densities.
               1          2
     1  O    1.512210  -0.512210
     2  O   -0.512210   1.512210
 Mulliken charges and spin densities:
               1          2
     1  O    0.000000   1.000000
     2  O    0.000000   1.000000
 Sum of Mulliken charges =   0.00000   2.00000
 Mulliken charges and spin densities with hydrogens summed into heavy atoms:
               1          2
     1  O    0.000000   1.000000
     2  O    0.000000   1.000000
 Electronic spatial extent (au):  <R**2>=             44.1105
 Charge=              0.0000 electrons
 Dipole moment (field-independent basis, Debye):
    X=              0.0000    Y=              0.0000    Z=              0.0000  Tot=              0.0000
 Quadrupole moment (field-independent basis, Debye-Ang):
   XX=            -10.2248   YY=            -10.2248   ZZ=            -10.4166
   XY=              0.0000   XZ=              0.0000   YZ=              0.0000
 Traceless Quadrupole moment (field-independent basis, Debye-Ang):
   XX=              0.0640   YY=              0.0640   ZZ=             -0.1279
   XY=              0.0000   XZ=              0.0000   YZ=              0.0000
 Octapole moment (field-independent basis, Debye-Ang**2):
  XXX=              0.0000  YYY=              0.0000  ZZZ=              0.0000  XYY=              0.0000
  XXY=              0.0000  XXZ=              0.0000  XZZ=              0.0000  YZZ=              0.0000
  YYZ=              0.0000  XYZ=              0.0000
 Hexadecapole moment (field-independent basis, Debye-Ang**3):
 XXXX=             -7.5888 YYYY=             -7.5888 ZZZZ=            -28.5543 XXXY=              0.0000
 XXXZ=              0.0000 YYYX=              0.0000 YYYZ=              0.0000 ZZZX=              0.0000
 ZZZY=              0.0000 XXYY=             -2.5296 XXZZ=             -6.2895 YYZZ=             -6.2895
 XXYZ=              0.0000 YYXZ=              0.0000 ZZXY=              0.0000
 N-N= 2.782461435104D+01 E-N=-4.093504669507D+02  KE= 1.486259517577D+02
 Symmetry AG   KE= 6.903432248678D+01
 Symmetry B1G  KE= 1.238012454502D-34
 Symmetry B2G  KE= 3.080823231908D+00
 Symmetry B3G  KE= 3.080823231908D+00
 Symmetry AU   KE= 7.541143861486D-34
 Symmetry B1U  KE= 6.462621020219D+01
 Symmetry B2U  KE= 4.401886302436D+00
 Symmetry B3U  KE= 4.401886302436D+00
 Symmetry AG   SP= 1.333414173348D-14
 Symmetry B1G  SP= 8.516259616592D-35
 Symmetry B2G  SP= 1.000000000000D+00
 Symmetry B3G  SP= 1.000000000000D+00
 Symmetry AU   SP= 3.270698210602D-34
 Symmetry B1U  SP=-5.336659509892D-15
 Symmetry B2U  SP= 8.752465982878D-15
 Symmetry B3U  SP= 2.330865264254D-15
 Leave Link  601 at Wed Oct 28 14:56:28 2015, MaxMem=    33554432 cpu:               0.0 elap:               0.0
 (Enter /home/gauss/gdvi03p/gdv/l9999.exe)
 Unable to Open any file for archive entry.
 1\1\GINC-MEDUSA\SP\UCIS-Full\Gen\O2(3)\PLESTRAN\28-Oct-2015\0\\#p uhf/
 gen cis(full,nstates=12) 6D\\O2 cc-pVDZ\\0,3\O,0,0.,0.,0.608586\O,0,0.
 ,0.,-0.608586\\Version=ES64L-GDVRevI.03+\State=3-SGG\HF=-149.5017757\M
 P2=-149.8731675\PUHF=-149.5129522\PMP2-0=-149.8802557\EFC=0.\S2=2.0482
 62\S2-1=2.012386\S2A=2.001177\RMSD=8.305e-10\PG=D*H [C*(O1.O1)]\\@
 The archive entry for this job was punched.


 CHEMISTRY BEGAN BY SAYING IT WOULD CHANGE THE BASER
 METALS INTO GOLD.  BY NOT DOING THAT IT HAS DONE MUCH
 GREATER THINGS.  --  RALPH WALDO EMERSON
 Job cpu time:       0 days  0 hours  0 minutes  1.8 seconds.
 Elapsed time:       0 days  0 hours  0 minutes  1.6 seconds.
 File lengths (MBytes):  RWF=     33 Int=      0 D2E=      0 Chk=      3 Scr=      1
 Normal termination of Gaussian DV at Wed Oct 28 14:56:28 2015.
