 Entering Gaussian System, Link 0=gdv
 Input=O2_sto3g_field.com
 Output=O2_sto3g_field.log
 Initial command:
 /home/gauss/gdvi01p/gdv/l1.exe "/home/GauScr/Gau-325.inp" -scrdir="/home/GauScr/"
 Entering Link 1 = /home/gauss/gdvi01p/gdv/l1.exe PID=       326.
  
 Copyright (c) 1988,1990,1992,1993,1995,1998,2003,2009,2014,
            Gaussian, Inc.  All Rights Reserved.
  
 This is the private, development version of
 the Gaussian(R) DV system of programs. It is based on
 the Gaussian(R) 09 system (copyright 2009, Gaussian, Inc.),
 the Gaussian(R) 03 system (copyright 2003, Gaussian, Inc.),
 the Gaussian(R) 98 system (copyright 1998, Gaussian, Inc.),
 the Gaussian(R) 94 system (copyright 1995, Gaussian, Inc.),
 the Gaussian 92(TM) system (copyright 1992, Gaussian, Inc.),
 the Gaussian 90(TM) system (copyright 1990, Gaussian, Inc.),
 the Gaussian 88(TM) system (copyright 1988, Gaussian, Inc.),
 the Gaussian 86(TM) system (copyright 1986, Carnegie Mellon
 University), and the Gaussian 82(TM) system (copyright 1983,
 Carnegie Mellon University). Gaussian is a federally registered
 trademark of Gaussian, Inc.
  
 This software contains proprietary and confidential information,
 including trade secrets, belonging to Gaussian, Inc.
  
 This software is provided under written license and may be
 used, copied, transmitted, or stored only in accord with that
 written license.
  
 The following legend is applicable only to US Government
 contracts under FAR:
  
                    RESTRICTED RIGHTS LEGEND
  
 Use, reproduction and disclosure by the US Government is
 subject to restrictions as set forth in subparagraphs (a)
 and (c) of the Commercial Computer Software - Restricted
 Rights clause in FAR 52.227-19.
  
 Gaussian, Inc.
 340 Quinnipiac St., Bldg. 40, Wallingford CT 06492
  
  
 ---------------------------------------------------------------
 Warning -- This program may not be used in any manner that
 competes with the business of Gaussian, Inc. or will provide
 assistance to any competitor of Gaussian, Inc.  The licensee
 of this program is prohibited from giving any competitor of
 Gaussian, Inc. access to this program.  By using this program,
 the user acknowledges that Gaussian, Inc. is engaged in the
 business of creating and licensing software in the field of
 computational chemistry and represents and warrants to the
 licensee that it is not a competitor of Gaussian, Inc. and that
 it will not use this program in any manner prohibited above.
 ---------------------------------------------------------------
  

 Cite this work as:
 Gaussian Development Version, Revision I.01+,
 M. J. Frisch, G. W. Trucks, H. B. Schlegel, G. E. Scuseria, 
 M. A. Robb, J. R. Cheeseman, G. Scalmani, V. Barone, B. Mennucci, 
 G. A. Petersson, H. Nakatsuji, M. Caricato, X. Li, H. P. Hratchian, 
 A. F. Izmaylov, J. Bloino, B. G. Janesko, F. Lipparini, G. Zheng, 
 J. L. Sonnenberg, W. Liang, M. Hada, M. Ehara, K. Toyota, R. Fukuda, 
 J. Hasegawa, M. Ishida, T. Nakajima, Y. Honda, O. Kitao, H. Nakai, 
 T. Vreven, J. A. Montgomery, Jr., J. E. Peralta, F. Ogliaro, 
 M. Bearpark, J. J. Heyd, E. Brothers, K. N. Kudin, V. N. Staroverov, 
 T. Keith, R. Kobayashi, J. Normand, K. Raghavachari, A. Rendell, 
 J. C. Burant, S. S. Iyengar, J. Tomasi, M. Cossi, N. Rega, 
 J. M. Millam, M. Klene, J. E. Knox, J. B. Cross, V. Bakken, 
 C. Adamo, J. Jaramillo, R. Gomperts, R. E. Stratmann, O. Yazyev, 
 A. J. Austin, R. Cammi, C. Pomelli, J. W. Ochterski, R. L. Martin, 
 K. Morokuma, V. G. Zakrzewski, G. A. Voth, P. Salvador, 
 J. J. Dannenberg, S. Dapprich, P. V. Parandekar, N. J. Mayhall, 
 A. D. Daniels, O. Farkas, J. B. Foresman, J. V. Ortiz, 
 J. Cioslowski, and D. J. Fox, Gaussian, Inc., Wallingford CT, 2010.
 
 *******************************************
 Gaussian DV:  ES64L-GDVRevI.01+ 11-Sep-2014
                 29-Sep-2015 
 *******************************************
 -------------------------------------------------
 #p uhf/sto-3g gfinput pop=full nosymm Field=X-100
 -------------------------------------------------
 1/38=1,172=1/1;
 2/12=2,15=1,17=6,18=5,40=1/2;
 3/6=3,11=2,14=1,15=-100,24=10,25=1,30=1,116=2/1,2,3;
 4//1;
 5/5=2,38=5/2;
 6/7=3,28=1/1;
 99/5=1,9=1/99;
 Leave Link    1 at Tue Sep 29 11:37:14 2015, MaxMem=           0 cpu:               0.0 elap:               0.0
 (Enter /home/gauss/gdvi01p/gdv/l101.exe)
 ---------
 O2 STO-3G
 ---------
 Symbolic Z-matrix:
 Charge =  0 Multiplicity = 3
 O                     0.        0.        0.60859 
 O                     0.        0.       -0.60859 
 
 ITRead=  0  0
 MicOpt= -1 -1
 NAtoms=      2 NQM=        2 NQMF=       0 NMMI=      0 NMMIF=      0
                NMic=       0 NMicF=      0.
                    Isotopes and Nuclear Properties:
 (Nuclear quadrupole moments (NQMom) in fm**2, nuclear magnetic moments (NMagM)
  in nuclear magnetons)

  Atom         1           2
 IAtWgt=          16          16
 AtmWgt=  15.9949146  15.9949146
 NucSpn=           0           0
 AtZEff=   0.0000000   0.0000000
 NQMom=    0.0000000   0.0000000
 NMagM=    0.0000000   0.0000000
 AtZNuc=   8.0000000   8.0000000
 Leave Link  101 at Tue Sep 29 11:37:14 2015, MaxMem=    33554432 cpu:               0.1 elap:               0.1
 (Enter /home/gauss/gdvi01p/gdv/l202.exe)
                          Input orientation:                          
 ---------------------------------------------------------------------
 Center     Atomic      Atomic             Coordinates (Angstroms)
 Number     Number       Type             X           Y           Z
 ---------------------------------------------------------------------
      1          8           0        0.000000    0.000000    0.608586
      2          8           0        0.000000    0.000000   -0.608586
 ---------------------------------------------------------------------
 Symmetry turned off by external request.
 Stoichiometry    O2(3)
 Framework group  D*H[C*(O.O)]
 Deg. of freedom     1
 Full point group                 D*H     NOp   8
 Rotational constants (GHZ):      0.0000000     42.6541569     42.6541569
 Leave Link  202 at Tue Sep 29 11:37:14 2015, MaxMem=    33554432 cpu:               0.0 elap:               0.0
 (Enter /home/gauss/gdvi01p/gdv/l301.exe)
 Standard basis: STO-3G (5D, 7F)
 Ernie: Thresh=  0.10000D-02 Tol=  0.10000D-05 Strict=F.
 The following finite field(s) will be applied:
 An electric field of             -0.0100  0.0000  0.0000
 AO basis set in the form of general basis input (Overlap normalization):
      1 0
 S   3 1.00       0.000000000000
      0.1307093214D+03  0.1543289673D+00
      0.2380886605D+02  0.5353281423D+00
      0.6443608313D+01  0.4446345422D+00
 SP   3 1.00       0.000000000000
      0.5033151319D+01 -0.9996722919D-01  0.1559162750D+00
      0.1169596125D+01  0.3995128261D+00  0.6076837186D+00
      0.3803889600D+00  0.7001154689D+00  0.3919573931D+00
 ****
      2 0
 S   3 1.00       0.000000000000
      0.1307093214D+03  0.1543289673D+00
      0.2380886605D+02  0.5353281423D+00
      0.6443608313D+01  0.4446345422D+00
 SP   3 1.00       0.000000000000
      0.5033151319D+01 -0.9996722919D-01  0.1559162750D+00
      0.1169596125D+01  0.3995128261D+00  0.6076837186D+00
      0.3803889600D+00  0.7001154689D+00  0.3919573931D+00
 ****

    10 basis functions,    30 primitive gaussians,    10 cartesian basis functions
     9 alpha electrons        7 beta electrons
       nuclear repulsion energy        27.8246143510 Hartrees.
 IExCor=    0 DFT=F Ex=HF Corr=None ExCW=0 ScaHFX=  1.000000
 ScaDFX=  1.000000  1.000000  1.000000  1.000000 ScalE2=  1.000000  1.000000
 IRadAn=      0 IRanWt=     -1 IRanGd=            0 ICorTp=0 IEmpDi=  4
 NAtoms=    2 NActive=    2 NUniq=    2 SFac= 1.00D+00 NAtFMM=   60 NAOKFM=F Big=F
 Integral buffers will be    131072 words long.
 Raffenetti 2 integral format.
 Two-electron integral symmetry is turned off.
 Leave Link  301 at Tue Sep 29 11:37:14 2015, MaxMem=    33554432 cpu:               0.1 elap:               0.0
 (Enter /home/gauss/gdvi01p/gdv/l302.exe)
 NPDir=0 NMtPBC=     1 NCelOv=     1 NCel=       1 NClECP=     1 NCelD=      1
         NCelK=      1 NCelE2=     1 NClLst=     1 CellRange=     0.0.
 One-electron integrals computed using PRISM.
 One-electron integral symmetry used in STVInt
 NBasis=    10 RedAO= T EigKep=  3.67D-01  NBF=    10
 NBsUse=    10 1.00D-06 EigRej= -1.00D+00 NBFU=    10
 Leave Link  302 at Tue Sep 29 11:37:15 2015, MaxMem=    33554432 cpu:               0.1 elap:               0.1
 (Enter /home/gauss/gdvi01p/gdv/l303.exe)
 DipDrv:  MaxL=1.
 The nuclear repulsion energy is now        27.8246143510 hartrees.
 Leave Link  303 at Tue Sep 29 11:37:15 2015, MaxMem=    33554432 cpu:               0.0 elap:               0.0
 (Enter /home/gauss/gdvi01p/gdv/l401.exe)
 ExpMin= 3.80D-01 ExpMax= 1.31D+02 ExpMxC= 1.31D+02 IAcc=1 IRadAn=         1 AccDes= 0.00D+00
 Harris functional with IExCor=  205 and IRadAn=       1 diagonalized for initial guess.
 HarFok:  IExCor=  205 AccDes= 0.00D+00 IRadAn=         1 IDoV= 1 UseB2=F ITyADJ=14
 ICtDFT=  3500011 ScaDFX=  1.000000  1.000000  1.000000  1.000000
 FoFCou: FMM=F IPFlag=           0 FMFlag=      100000 FMFlg1=           0
         NFxFlg=           0 DoJE=T BraDBF=F KetDBF=T FulRan=T
         wScrn=  0.000000 ICntrl=       500 IOpCl=  0 I1Cent=   200000004 NGrid=           0
         NMat0=    1 NMatS0=      1 NMatT0=    0 NMatD0=    1 NMtDS0=    0 NMtDT0=    0
 Symmetry not used in FoFCou.
 Harris En= -147.510630486682    
 JPrj=0 DoOrth=F DoCkMO=F.
 Initial guess <Sx>= 0.0000 <Sy>= 0.0000 <Sz>= 1.0000 <S**2>= 2.0000 S= 1.0000
 Leave Link  401 at Tue Sep 29 11:37:15 2015, MaxMem=    33554432 cpu:               0.1 elap:               0.1
 (Enter /home/gauss/gdvi01p/gdv/l502.exe)
 Keep R1 and R2 ints in memory in canonical form, NReq=805396.
 FoFCou: FMM=F IPFlag=           0 FMFlag=           0 FMFlg1=           0
         NFxFlg=           0 DoJE=F BraDBF=F KetDBF=F FulRan=T
         wScrn=  0.000000 ICntrl=       600 IOpCl=  0 I1Cent=           0 NGrid=           0
         NMat0=    1 NMatS0=     55 NMatT0=    0 NMatD0=    1 NMtDS0=    0 NMtDT0=    0
 Symmetry not used in FoFCou.
 Two-electron integral symmetry not used.
 UHF open shell SCF:
 Using DIIS extrapolation, IDIIS=  1040.
 NGot=    33554432 LenX=    33550028 LenY=    33549146
 Requested convergence on RMS density matrix=1.00D-08 within 128 cycles.
 Requested convergence on MAX density matrix=1.00D-06.
 Requested convergence on             energy=1.00D-06.
 No special actions if energy rises.

 Cycle   1  Pass 1  IDiag  1:
 E= -147.631013047929    
 DIIS: error= 3.62D-02 at cycle   1 NSaved=   1.
 NSaved= 1 IEnMin= 1 EnMin= -147.631013047929     IErMin= 1 ErrMin= 3.62D-02
 ErrMax= 3.62D-02  0.00D+00 EMaxC= 1.00D-01 BMatC= 1.92D-02 BMatP= 1.92D-02
 IDIUse=3 WtCom= 6.38D-01 WtEn= 3.62D-01
 Coeff-Com:  0.100D+01
 Coeff-En:   0.100D+01
 Coeff:      0.100D+01
 Gap=     1.089 Goal=   None    Shift=    0.000
 Gap=     0.707 Goal=   None    Shift=    0.000
 GapD=    0.707 DampG=2.000 DampE=0.500 DampFc=1.0000 IDamp=-1.
 RMSDP=6.37D-03 MaxDP=2.92D-02              OVMax= 0.00D+00

 Cycle   2  Pass 1  IDiag  1:
 E= -147.633889799046     Delta-E=       -0.002876751118 Rises=F Damp=F
 DIIS: error= 7.99D-03 at cycle   2 NSaved=   2.
 NSaved= 2 IEnMin= 2 EnMin= -147.633889799046     IErMin= 2 ErrMin= 7.99D-03
 ErrMax= 7.99D-03  0.00D+00 EMaxC= 1.00D-01 BMatC= 7.94D-04 BMatP= 1.92D-02
 IDIUse=3 WtCom= 9.20D-01 WtEn= 7.99D-02
 Coeff-Com: -0.152D+00 0.115D+01
 Coeff-En:   0.000D+00 0.100D+01
 Coeff:     -0.140D+00 0.114D+01
 Gap=     1.091 Goal=   None    Shift=    0.000
 Gap=     0.706 Goal=   None    Shift=    0.000
 RMSDP=2.40D-03 MaxDP=1.04D-02 DE=-2.88D-03 OVMax= 0.00D+00

 Cycle   3  Pass 1  IDiag  1:
 E= -147.634199943819     Delta-E=       -0.000310144772 Rises=F Damp=F
 DIIS: error= 1.74D-03 at cycle   3 NSaved=   3.
 NSaved= 3 IEnMin= 3 EnMin= -147.634199943819     IErMin= 3 ErrMin= 1.74D-03
 ErrMax= 1.74D-03  0.00D+00 EMaxC= 1.00D-01 BMatC= 5.88D-05 BMatP= 7.94D-04
 IDIUse=3 WtCom= 9.83D-01 WtEn= 1.74D-02
 Coeff-Com:  0.320D-01-0.475D+00 0.144D+01
 Coeff-En:   0.000D+00 0.000D+00 0.100D+01
 Coeff:      0.314D-01-0.466D+00 0.143D+01
 Gap=     1.090 Goal=   None    Shift=    0.000
 Gap=     0.706 Goal=   None    Shift=    0.000
 RMSDP=9.14D-04 MaxDP=3.42D-03 DE=-3.10D-04 OVMax= 0.00D+00

 Cycle   4  Pass 1  IDiag  1:
 E= -147.634227769607     Delta-E=       -0.000027825788 Rises=F Damp=F
 DIIS: error= 2.28D-04 at cycle   4 NSaved=   4.
 NSaved= 4 IEnMin= 4 EnMin= -147.634227769607     IErMin= 4 ErrMin= 2.28D-04
 ErrMax= 2.28D-04  0.00D+00 EMaxC= 1.00D-01 BMatC= 6.56D-07 BMatP= 5.88D-05
 IDIUse=3 WtCom= 9.98D-01 WtEn= 2.28D-03
 Coeff-Com: -0.812D-02 0.151D+00-0.533D+00 0.139D+01
 Coeff-En:   0.000D+00 0.000D+00 0.000D+00 0.100D+01
 Coeff:     -0.810D-02 0.151D+00-0.532D+00 0.139D+01
 Gap=     1.090 Goal=   None    Shift=    0.000
 Gap=     0.706 Goal=   None    Shift=    0.000
 RMSDP=1.00D-04 MaxDP=4.63D-04 DE=-2.78D-05 OVMax= 0.00D+00

 Cycle   5  Pass 1  IDiag  1:
 E= -147.634228075672     Delta-E=       -0.000000306065 Rises=F Damp=F
 DIIS: error= 1.10D-05 at cycle   5 NSaved=   5.
 NSaved= 5 IEnMin= 5 EnMin= -147.634228075672     IErMin= 5 ErrMin= 1.10D-05
 ErrMax= 1.10D-05  0.00D+00 EMaxC= 1.00D-01 BMatC= 1.56D-09 BMatP= 6.56D-07
 IDIUse=1 WtCom= 1.00D+00 WtEn= 0.00D+00
 Coeff-Com:  0.743D-02-0.138D+00 0.487D+00-0.127D+01 0.192D+01
 Coeff:      0.743D-02-0.138D+00 0.487D+00-0.127D+01 0.192D+01
 Gap=     1.090 Goal=   None    Shift=    0.000
 Gap=     0.706 Goal=   None    Shift=    0.000
 RMSDP=8.10D-06 MaxDP=3.45D-05 DE=-3.06D-07 OVMax= 0.00D+00

 Cycle   6  Pass 1  IDiag  1:
 E= -147.634228077292     Delta-E=       -0.000000001620 Rises=F Damp=F
 DIIS: error= 2.02D-06 at cycle   6 NSaved=   6.
 NSaved= 6 IEnMin= 6 EnMin= -147.634228077292     IErMin= 6 ErrMin= 2.02D-06
 ErrMax= 2.02D-06  0.00D+00 EMaxC= 1.00D-01 BMatC= 5.67D-11 BMatP= 1.56D-09
 IDIUse=1 WtCom= 1.00D+00 WtEn= 0.00D+00
 Coeff-Com: -0.240D-03 0.436D-02-0.152D-01 0.390D-01-0.284D+00 0.126D+01
 Coeff:     -0.240D-03 0.436D-02-0.152D-01 0.390D-01-0.284D+00 0.126D+01
 Gap=     1.090 Goal=   None    Shift=    0.000
 Gap=     0.706 Goal=   None    Shift=    0.000
 RMSDP=1.87D-06 MaxDP=7.88D-06 DE=-1.62D-09 OVMax= 0.00D+00

 Cycle   7  Pass 1  IDiag  1:
 E= -147.634228077352     Delta-E=       -0.000000000060 Rises=F Damp=F
 DIIS: error= 1.02D-07 at cycle   7 NSaved=   7.
 NSaved= 7 IEnMin= 7 EnMin= -147.634228077352     IErMin= 7 ErrMin= 1.02D-07
 ErrMax= 1.02D-07  0.00D+00 EMaxC= 1.00D-01 BMatC= 1.91D-13 BMatP= 5.67D-11
 IDIUse=1 WtCom= 1.00D+00 WtEn= 0.00D+00
 Coeff-Com:  0.650D-04-0.116D-02 0.405D-02-0.103D-01 0.101D+00-0.476D+00
 Coeff-Com:  0.138D+01
 Coeff:      0.650D-04-0.116D-02 0.405D-02-0.103D-01 0.101D+00-0.476D+00
 Coeff:      0.138D+01
 Gap=     1.090 Goal=   None    Shift=    0.000
 Gap=     0.706 Goal=   None    Shift=    0.000
 RMSDP=4.56D-08 MaxDP=2.14D-07 DE=-6.03D-11 OVMax= 0.00D+00

 Cycle   8  Pass 1  IDiag  1:
 E= -147.634228077352     Delta-E=        0.000000000000 Rises=F Damp=F
 DIIS: error= 1.81D-08 at cycle   8 NSaved=   8.
 NSaved= 8 IEnMin= 8 EnMin= -147.634228077352     IErMin= 8 ErrMin= 1.81D-08
 ErrMax= 1.81D-08  0.00D+00 EMaxC= 1.00D-01 BMatC= 6.34D-15 BMatP= 1.91D-13
 IDIUse=1 WtCom= 1.00D+00 WtEn= 0.00D+00
 Coeff-Com:  0.138D-06-0.612D-05 0.244D-04-0.883D-04-0.391D-02 0.224D-01
 Coeff-Com: -0.275D+00 0.126D+01
 Coeff:      0.138D-06-0.612D-05 0.244D-04-0.883D-04-0.391D-02 0.224D-01
 Coeff:     -0.275D+00 0.126D+01
 Gap=     1.090 Goal=   None    Shift=    0.000
 Gap=     0.706 Goal=   None    Shift=    0.000
 RMSDP=1.02D-08 MaxDP=4.64D-08 DE=-1.42D-13 OVMax= 0.00D+00

 Cycle   9  Pass 1  IDiag  1:
 E= -147.634228077352     Delta-E=        0.000000000000 Rises=F Damp=F
 DIIS: error= 2.05D-11 at cycle   9 NSaved=   9.
 NSaved= 9 IEnMin= 8 EnMin= -147.634228077352     IErMin= 9 ErrMin= 2.05D-11
 ErrMax= 2.05D-11  0.00D+00 EMaxC= 1.00D-01 BMatC= 4.92D-21 BMatP= 6.34D-15
 IDIUse=1 WtCom= 1.00D+00 WtEn= 0.00D+00
 Coeff-Com: -0.532D-08 0.261D-06-0.105D-05 0.383D-05 0.186D-03-0.106D-02
 Coeff-Com:  0.132D-01-0.601D-01 0.105D+01
 Coeff:     -0.532D-08 0.261D-06-0.105D-05 0.383D-05 0.186D-03-0.106D-02
 Coeff:      0.132D-01-0.601D-01 0.105D+01
 Gap=     1.090 Goal=   None    Shift=    0.000
 Gap=     0.706 Goal=   None    Shift=    0.000
 RMSDP=7.89D-12 MaxDP=3.29D-11 DE= 8.53D-14 OVMax= 0.00D+00

 SCF Done:  E(UHF) =  -147.634228077     A.U. after    9 cycles
            NFock=  9  Conv=0.79D-11     -V/T= 2.0113
 <Sx>= 0.0000 <Sy>= 0.0000 <Sz>= 1.0000 <S**2>= 2.0034 S= 1.0011
 <L.S>= 0.000000000000E+00
 KE= 1.459850580189D+02 PE=-4.058375422655D+02 EE= 8.439364181827D+01
 Annihilation of the first spin contaminant:
 S**2 before annihilation     2.0034,   after     2.0000
 Leave Link  502 at Tue Sep 29 11:37:15 2015, MaxMem=    33554432 cpu:               0.1 elap:               0.1
 (Enter /home/gauss/gdvi01p/gdv/l601.exe)
 Copying SCF densities to generalized density rwf, IOpCl= 1 IROHF=0.

 **********************************************************************

            Population analysis using the SCF density.

 **********************************************************************

 Alpha  occ. eigenvalues --  -20.43920 -20.43810  -1.61164  -1.09227  -0.71156
 Alpha  occ. eigenvalues --   -0.71154  -0.60489  -0.41547  -0.41544
 Alpha virt. eigenvalues --    0.67487
  Beta  occ. eigenvalues --  -20.40772 -20.40755  -1.48033  -0.89954  -0.55259
  Beta  occ. eigenvalues --   -0.43874  -0.43861
  Beta virt. eigenvalues --    0.26789   0.26792   0.76407
     Alpha Molecular Orbital Coefficients:
                           1         2         3         4         5
                           O         O         O         O         O
     Eigenvalues --   -20.43920 -20.43810  -1.61164  -1.09227  -0.71156
   1 1   O  1S          0.70273   0.70351  -0.17122  -0.18877   0.00000
   2        2S          0.02062   0.01332   0.58405   0.79163   0.00000
   3        2PX        -0.00001  -0.00001  -0.00357  -0.00506   0.00000
   4        2PY         0.00000   0.00000   0.00000   0.00000   0.65973
   5        2PZ        -0.00580   0.00000  -0.15547   0.12936   0.00000
   6 2   O  1S         -0.70273   0.70351  -0.17122   0.18877   0.00000
   7        2S         -0.02062   0.01332   0.58405  -0.79163   0.00000
   8        2PX         0.00001  -0.00001  -0.00357   0.00506   0.00000
   9        2PY         0.00000   0.00000   0.00000   0.00000   0.65973
  10        2PZ        -0.00580   0.00000   0.15547   0.12936   0.00000
                           6         7         8         9        10
                           O         O         O         O         V
     Eigenvalues --    -0.71154  -0.60489  -0.41547  -0.41544   0.67487
   1 1   O  1S         -0.00037  -0.06165   0.00000  -0.00103   0.08821
   2        2S          0.00039   0.31409   0.00000   0.00396  -0.54662
   3        2PX         0.65969   0.00582   0.00000   0.76640  -0.00178
   4        2PY         0.00000   0.00000   0.76642   0.00000   0.00000
   5        2PZ        -0.00631   0.61940   0.00000   0.00304   0.94283
   6 2   O  1S         -0.00037  -0.06165   0.00000   0.00103  -0.08821
   7        2S          0.00039   0.31409   0.00000  -0.00396   0.54662
   8        2PX         0.65969   0.00582   0.00000  -0.76640   0.00178
   9        2PY         0.00000   0.00000  -0.76642   0.00000   0.00000
  10        2PZ         0.00631  -0.61940   0.00000   0.00304   0.94283
     Beta Molecular Orbital Coefficients:
                           1         2         3         4         5
                           O         O         O         O         O
     Eigenvalues --   -20.40772 -20.40755  -1.48033  -0.89954  -0.55259
   1 1   O  1S          0.70321   0.70383  -0.16704  -0.18185  -0.06891
   2        2S          0.01847   0.01214   0.56893   0.75840   0.34049
   3        2PX        -0.00001  -0.00001  -0.00408  -0.00673  -0.01973
   4        2PY         0.00000   0.00000   0.00000   0.00000   0.00000
   5        2PZ        -0.00525  -0.00015  -0.18393   0.18417   0.61134
   6 2   O  1S         -0.70321   0.70383  -0.16704   0.18185  -0.06891
   7        2S         -0.01847   0.01214   0.56893  -0.75840   0.34049
   8        2PX         0.00001  -0.00001  -0.00408   0.00673  -0.01973
   9        2PY         0.00000   0.00000   0.00000   0.00000   0.00000
  10        2PZ        -0.00525   0.00015   0.18393   0.18417  -0.61134
                           6         7         8         9        10
                           O         O         V         V         V
     Eigenvalues --    -0.43874  -0.43861   0.26789   0.26792   0.76407
   1 1   O  1S          0.00000  -0.00308   0.00000  -0.00123   0.09838
   2        2S          0.00000   0.01371   0.00000   0.00453  -0.59193
   3        2PX         0.00000   0.65942   0.00000   0.76639  -0.00276
   4        2PY         0.65973   0.00000   0.76642   0.00000   0.00000
   5        2PZ         0.00000   0.01716   0.00000   0.00498   0.93367
   6 2   O  1S          0.00000  -0.00308   0.00000   0.00123  -0.09838
   7        2S          0.00000   0.01371   0.00000  -0.00453   0.59193
   8        2PX         0.00000   0.65942   0.00000  -0.76639   0.00276
   9        2PY         0.65973   0.00000  -0.76642   0.00000   0.00000
  10        2PZ         0.00000  -0.01716   0.00000   0.00498   0.93367
     Alpha Density Matrix:
                           1         2         3         4         5
   1 1   O  1S          1.05751
   2        2S         -0.24495   1.06707
   3        2PX         0.00016  -0.00097   1.02264
   4        2PY         0.00000   0.00000   0.00000   1.02264
   5        2PZ        -0.04006   0.20605   0.00168   0.00000   0.42464
   6 2   O  1S         -0.00143   0.02496  -0.00016   0.00000   0.01694
   7        2S          0.02496  -0.18717   0.00097   0.00000   0.00145
   8        2PX        -0.00016   0.00097  -0.15216   0.00000  -0.00168
   9        2PY         0.00000   0.00000   0.00000  -0.15217   0.00000
  10        2PZ        -0.01694  -0.00145   0.00168   0.00000  -0.39109
                           6         7         8         9        10
   6 2   O  1S          1.05751
   7        2S         -0.24495   1.06707
   8        2PX         0.00016  -0.00097   1.02264
   9        2PY         0.00000   0.00000   0.00000   1.02264
  10        2PZ         0.04006  -0.20605  -0.00168   0.00000   0.42464
     Beta Density Matrix:
                           1         2         3         4         5
   1 1   O  1S          1.05561
   2        2S         -0.23492   1.01546
   3        2PX         0.00121  -0.00510   0.43528
   4        2PY         0.00000   0.00000   0.00000   0.43524
   5        2PZ        -0.04875   0.24332  -0.00124   0.00000   0.44181
   6 2   O  1S          0.00047   0.01494  -0.00121   0.00000   0.02562
   7        2S          0.01494  -0.13556   0.00510   0.00000  -0.03583
   8        2PX        -0.00121   0.00510   0.43519   0.00000   0.00124
   9        2PY         0.00000   0.00000   0.00000   0.43524   0.00000
  10        2PZ        -0.02562   0.03583  -0.00124   0.00000  -0.37392
                           6         7         8         9        10
   6 2   O  1S          1.05561
   7        2S         -0.23492   1.01546
   8        2PX         0.00121  -0.00510   0.43528
   9        2PY         0.00000   0.00000   0.00000   0.43524
  10        2PZ         0.04875  -0.24332   0.00124   0.00000   0.44181
    Full Mulliken population analysis:
                           1         2         3         4         5
   1 1   O  1S          2.11312
   2        2S         -0.11359   2.08253
   3        2PX         0.00000   0.00000   1.45792
   4        2PY         0.00000   0.00000   0.00000   1.45788
   5        2PZ         0.00000   0.00000   0.00000   0.00000   0.86646
   6 2   O  1S          0.00000   0.00088   0.00000   0.00000  -0.00160
   7        2S          0.00088  -0.08908   0.00000   0.00000   0.01091
   8        2PX         0.00000   0.00000   0.04211   0.00000   0.00000
   9        2PY         0.00000   0.00000   0.00000   0.04212   0.00000
  10        2PZ        -0.00160   0.01091   0.00000   0.00000   0.23373
                           6         7         8         9        10
   6 2   O  1S          2.11312
   7        2S         -0.11359   2.08253
   8        2PX         0.00000   0.00000   1.45792
   9        2PY         0.00000   0.00000   0.00000   1.45788
  10        2PZ         0.00000   0.00000   0.00000   0.00000   0.86646
     Gross orbital populations:
                         Total     Alpha     Beta      Spin
   1 1   O  1S          1.99882   0.99945   0.99937   0.00007
   2        2S          1.89165   0.95752   0.93413   0.02339
   3        2PX         1.50004   1.00000   0.50004   0.49996
   4        2PY         1.50000   1.00000   0.50000   0.50000
   5        2PZ         1.10950   0.54304   0.56646  -0.02342
   6 2   O  1S          1.99882   0.99945   0.99937   0.00007
   7        2S          1.89165   0.95752   0.93413   0.02339
   8        2PX         1.50004   1.00000   0.50004   0.49996
   9        2PY         1.50000   1.00000   0.50000   0.50000
  10        2PZ         1.10950   0.54304   0.56646  -0.02342
          Condensed to atoms (all electrons):
               1          2
     1  O    7.750728   0.249272
     2  O    0.249272   7.750728
          Atomic-Atomic Spin Densities.
               1          2
     1  O    1.206357  -0.206357
     2  O   -0.206357   1.206357
 Mulliken charges and spin densities:
               1          2
     1  O    0.000000   1.000000
     2  O    0.000000   1.000000
 Sum of Mulliken charges =   0.00000   2.00000
 Mulliken charges and spin densities with hydrogens summed into heavy atoms:
               1          2
     1  O    0.000000   1.000000
     2  O    0.000000   1.000000
 Electronic spatial extent (au):  <R**2>=             40.9778
 Charge=              0.0000 electrons
 Dipole moment (field-independent basis, Debye):
    X=              0.0288    Y=              0.0000    Z=              0.0000  Tot=              0.0288
 Quadrupole moment (field-independent basis, Debye-Ang):
   XX=             -8.4750   YY=             -8.4749   ZZ=             -9.7027
   XY=              0.0000   XZ=              0.0000   YZ=              0.0000
 Traceless Quadrupole moment (field-independent basis, Debye-Ang):
   XX=              0.4092   YY=              0.4093   ZZ=             -0.8185
   XY=              0.0000   XZ=              0.0000   YZ=              0.0000
 Octapole moment (field-independent basis, Debye-Ang**2):
  XXX=              0.0095  YYY=              0.0000  ZZZ=              0.0000  XYY=              0.0032
  XXY=              0.0000  XXZ=              0.0000  XZZ=              0.0163  YZZ=              0.0000
  YYZ=              0.0000  XYZ=              0.0000
 Hexadecapole moment (field-independent basis, Debye-Ang**3):
 XXXX=             -3.9630 YYYY=             -3.9630 ZZZZ=            -23.6693 XXXY=              0.0000
 XXXZ=              0.0000 YYYX=              0.0000 YYYZ=              0.0000 ZZZX=              0.0000
 ZZZY=              0.0000 XXYY=             -1.3210 XXZZ=             -4.5963 YYZZ=             -4.5963
 XXYZ=              0.0000 YYXZ=              0.0000 ZZXY=              0.0000
 N-N= 2.782461435104D+01 E-N=-4.058375422655D+02  KE= 1.459850580189D+02
 Orbital energies and kinetic energies (alpha):
                                 1                 2
   1         O               -20.439202         28.637518
   2         O               -20.438096         28.702100
   3         O                -1.611643          2.534564
   4         O                -1.092270          3.278816
   5         O                -0.711563          2.252565
   6         O                -0.711540          2.252562
   7         O                -0.604895          2.482637
   8         O                -0.415469          2.901449
   9         O                -0.415438          2.901444
  10         V                 0.674869          4.529565
 Orbital energies and kinetic energies (beta):
                                 1                 2
   1         O               -20.407722         28.676899
   2         O               -20.407550         28.729233
   3         O                -1.480333          2.483754
   4         O                -0.899537          3.140077
   5         O                -0.552592          2.505971
   6         O                -0.438741          2.252565
   7         O                -0.438613          2.252904
   8         V                 0.267885          2.901449
   9         V                 0.267924          2.901434
  10         V                 0.764072          4.628932
 Total kinetic energy from orbitals= 1.459850580189D+02
                          Isotropic Fermi Contact Couplings
        Atom                 a.u.       MegaHertz       Gauss      10(-4) cm-1
     1  O(17)              0.13321     -40.37478     -14.40672     -13.46758
     2  O(17)              0.13321     -40.37478     -14.40672     -13.46758
 --------------------------------------------------------
       Center         ----  Spin Dipole Couplings  ----
                      3XX-RR        3YY-RR        3ZZ-RR
 --------------------------------------------------------
     1   Atom        0.785052      0.785250     -1.570301
     2   Atom        0.785052      0.785250     -1.570301
 --------------------------------------------------------
                        XY            XZ            YZ
 --------------------------------------------------------
     1   Atom        0.000000      0.012010      0.000000
     2   Atom        0.000000     -0.012010      0.000000
 --------------------------------------------------------


 ---------------------------------------------------------------------------------
              Anisotropic Spin Dipole Couplings in Principal Axis System
 ---------------------------------------------------------------------------------

       Atom             a.u.   MegaHertz   Gauss  10(-4) cm-1        Axes

              Baa    -1.5704   113.630    40.546    37.903 -0.0051  0.0000  1.0000
     1 O(17)  Bbb     0.7851   -56.810   -20.271   -18.950  1.0000  0.0000  0.0051
              Bcc     0.7852   -56.820   -20.275   -18.953  0.0000  1.0000  0.0000
 
              Baa    -1.5704   113.630    40.546    37.903  0.0051  0.0000  1.0000
     2 O(17)  Bbb     0.7851   -56.810   -20.271   -18.950  1.0000  0.0000 -0.0051
              Bcc     0.7852   -56.820   -20.275   -18.953  0.0000  1.0000  0.0000
 

 ---------------------------------------------------------------------------------

 No NMR shielding tensors so no spin-rotation constants.
 Leave Link  601 at Tue Sep 29 11:37:15 2015, MaxMem=    33554432 cpu:               0.2 elap:               0.2
 (Enter /home/gauss/gdvi01p/gdv/l9999.exe)
 Unable to Open any file for archive entry.
 1\1\GINC-MEDUSA\SP\UHF\STO-3G\O2(3)\DBWY\29-Sep-2015\0\\#p uhf/sto-3g 
 gfinput pop=full nosymm Field=X-100\\O2 STO-3G\\0,3\O,0,0.,0.,0.608586
 \O,0,0.,0.,-0.608586\\Version=ES64L-GDVRevI.01+\HF=-147.6342281\S2=2.0
 03409\S2-1=0.\S2A=2.\RMSD=7.895e-12\Dipole=0.0113265,0.,0.\Quadrupole=
 0.3042507,0.3042899,-0.6085406,0.,0.,0.\PG=D*H [C*(O1.O1)]\\@
 The archive entry for this job was punched.


 THE LENGTH OF A MEETING IS PROPORTIONAL TO THE
 SQUARE OF THE PARTICIPANTS.
 Job cpu time:       0 days  0 hours  0 minutes  0.7 seconds.
 Elapsed time:       0 days  0 hours  0 minutes  0.6 seconds.
 File lengths (MBytes):  RWF=      5 Int=      0 D2E=      0 Chk=      1 Scr=      1
 Normal termination of Gaussian DV at Tue Sep 29 11:37:15 2015.
