 Entering Gaussian System, Link 0=gdv
 Input=O2_sto3g_CRHF.com
 Output=O2_sto3g_CRHF.log
 Initial command:
 /home/gauss/gdvi03p/gdv/l1.exe "/home/GauScr/Gau-21826.inp" -scrdir="/home/GauScr/"
 Entering Link 1 = /home/gauss/gdvi03p/gdv/l1.exe PID=     21827.
  
 Copyright (c) 1988,1990,1992,1993,1995,1998,2003,2009,2015,
            Gaussian, Inc.  All Rights Reserved.
  
 This is the private, development version of
 the Gaussian(R) DV system of programs. It is based on
 the Gaussian(R) 09 system (copyright 2009, Gaussian, Inc.),
 the Gaussian(R) 03 system (copyright 2003, Gaussian, Inc.),
 the Gaussian(R) 98 system (copyright 1998, Gaussian, Inc.),
 the Gaussian(R) 94 system (copyright 1995, Gaussian, Inc.),
 the Gaussian 92(TM) system (copyright 1992, Gaussian, Inc.),
 the Gaussian 90(TM) system (copyright 1990, Gaussian, Inc.),
 the Gaussian 88(TM) system (copyright 1988, Gaussian, Inc.),
 the Gaussian 86(TM) system (copyright 1986, Carnegie Mellon
 University), and the Gaussian 82(TM) system (copyright 1983,
 Carnegie Mellon University). Gaussian is a federally registered
 trademark of Gaussian, Inc.
  
 This software contains proprietary and confidential information,
 including trade secrets, belonging to Gaussian, Inc.
  
 This software is provided under written license and may be
 used, copied, transmitted, or stored only in accord with that
 written license.
  
 The following legend is applicable only to US Government
 contracts under FAR:
  
                    RESTRICTED RIGHTS LEGEND
  
 Use, reproduction and disclosure by the US Government is
 subject to restrictions as set forth in subparagraphs (a)
 and (c) of the Commercial Computer Software - Restricted
 Rights clause in FAR 52.227-19.
  
 Gaussian, Inc.
 340 Quinnipiac St., Bldg. 40, Wallingford CT 06492
  
  
 ---------------------------------------------------------------
 Warning -- This program may not be used in any manner that
 competes with the business of Gaussian, Inc. or will provide
 assistance to any competitor of Gaussian, Inc.  The licensee
 of this program is prohibited from giving any competitor of
 Gaussian, Inc. access to this program.  By using this program,
 the user acknowledges that Gaussian, Inc. is engaged in the
 business of creating and licensing software in the field of
 computational chemistry and represents and warrants to the
 licensee that it is not a competitor of Gaussian, Inc. and that
 it will not use this program in any manner prohibited above.
 ---------------------------------------------------------------
  

 Cite this work as:
 Gaussian Development Version, Revision I.03+,
 M. J. Frisch, G. W. Trucks, H. B. Schlegel, G. E. Scuseria, 
 M. A. Robb, J. R. Cheeseman, G. Scalmani, V. Barone, B. Mennucci, 
 G. A. Petersson, H. Nakatsuji, M. Caricato, X. Li, H. P. Hratchian, 
 J. Bloino, B. G. Janesko, A. F. Izmaylov, A. Marenich, F. Lipparini, 
 G. Zheng, J. L. Sonnenberg, W. Liang, M. Hada, M. Ehara, K. Toyota, 
 R. Fukuda, J. Hasegawa, M. Ishida, T. Nakajima, Y. Honda, O. Kitao, 
 H. Nakai, T. Vreven, K. Throssell, J. A. Montgomery, Jr., 
 J. E. Peralta, F. Ogliaro, M. Bearpark, J. J. Heyd, E. Brothers, 
 K. N. Kudin, V. N. Staroverov, T. Keith, R. Kobayashi, J. Normand, 
 K. Raghavachari, A. Rendell, J. C. Burant, S. S. Iyengar, J. Tomasi, 
 M. Cossi, N. Rega, J. M. Millam, M. Klene, J. E. Knox, J. B. Cross, 
 V. Bakken, C. Adamo, J. Jaramillo, R. Gomperts, R. E. Stratmann, 
 O. Yazyev, A. J. Austin, R. Cammi, C. Pomelli, J. W. Ochterski, 
 R. L. Martin, K. Morokuma, V. G. Zakrzewski, G. A. Voth, 
 P. Salvador, J. J. Dannenberg, S. Dapprich, P. V. Parandekar, 
 N. J. Mayhall, A. D. Daniels, O. Farkas, J. B. Foresman, 
 J. V. Ortiz, J. Cioslowski, and D. J. Fox, 
 Gaussian, Inc., Wallingford CT, 2014.
 
 *******************************************
 Gaussian DV:  ES64L-GDVRevI.03+  2-May-2015
                 12-Oct-2015 
 *******************************************
 --------------------------------------
 #p crhf/sto-3g gfinput pop=full nosymm
 --------------------------------------
 1/38=1,172=1/1;
 2/12=2,15=1,17=6,18=5,40=1/2;
 3/6=3,11=9,24=10,25=1,30=1,116=3/1,2,3;
 4//1;
 5/5=2,38=5/2;
 6/7=3,28=1/1;
 99/5=1,9=1/99;
 Leave Link    1 at Mon Oct 12 14:23:31 2015, MaxMem=           0 cpu:               0.0 elap:               0.0
 (Enter /home/gauss/gdvi03p/gdv/l101.exe)
 ---------------------
 O2 STO-3G Complex RHF
 ---------------------
 Symbolic Z-matrix:
 Charge =  0 Multiplicity = 1
 O                     0.        0.        0.60859 
 O                     0.        0.       -0.60859 
 
 ITRead=  0  0
 MicOpt= -1 -1
 NAtoms=      2 NQM=        2 NQMF=       0 NMMI=      0 NMMIF=      0
                NMic=       0 NMicF=      0.
                    Isotopes and Nuclear Properties:
 (Nuclear quadrupole moments (NQMom) in fm**2, nuclear magnetic moments (NMagM)
  in nuclear magnetons)

  Atom         1           2
 IAtWgt=          16          16
 AtmWgt=  15.9949146  15.9949146
 NucSpn=           0           0
 AtZEff=   0.0000000   0.0000000
 NQMom=    0.0000000   0.0000000
 NMagM=    0.0000000   0.0000000
 AtZNuc=   8.0000000   8.0000000
 Leave Link  101 at Mon Oct 12 14:23:31 2015, MaxMem=    33554432 cpu:               0.2 elap:               0.2
 (Enter /home/gauss/gdvi03p/gdv/l202.exe)
                          Input orientation:                          
 ---------------------------------------------------------------------
 Center     Atomic      Atomic             Coordinates (Angstroms)
 Number     Number       Type             X           Y           Z
 ---------------------------------------------------------------------
      1          8           0        0.000000    0.000000    0.608586
      2          8           0        0.000000    0.000000   -0.608586
 ---------------------------------------------------------------------
 Symmetry turned off by external request.
 Stoichiometry    O2
 Framework group  D*H[C*(O.O)]
 Deg. of freedom     1
 Full point group                 D*H     NOp   8
 Rotational constants (GHZ):      0.0000000     42.6541569     42.6541569
 Leave Link  202 at Mon Oct 12 14:23:31 2015, MaxMem=    33554432 cpu:               0.0 elap:               0.0
 (Enter /home/gauss/gdvi03p/gdv/l301.exe)
 Standard basis: STO-3G (5D, 7F)
 Ernie: Thresh=  0.10000D-02 Tol=  0.10000D-05 Strict=F.
 AO basis set in the form of general basis input (Overlap normalization):
      1 0
 S   3 1.00       0.000000000000
      0.1307093214D+03  0.1543289673D+00
      0.2380886605D+02  0.5353281423D+00
      0.6443608313D+01  0.4446345422D+00
 SP   3 1.00       0.000000000000
      0.5033151319D+01 -0.9996722919D-01  0.1559162750D+00
      0.1169596125D+01  0.3995128261D+00  0.6076837186D+00
      0.3803889600D+00  0.7001154689D+00  0.3919573931D+00
 ****
      2 0
 S   3 1.00       0.000000000000
      0.1307093214D+03  0.1543289673D+00
      0.2380886605D+02  0.5353281423D+00
      0.6443608313D+01  0.4446345422D+00
 SP   3 1.00       0.000000000000
      0.5033151319D+01 -0.9996722919D-01  0.1559162750D+00
      0.1169596125D+01  0.3995128261D+00  0.6076837186D+00
      0.3803889600D+00  0.7001154689D+00  0.3919573931D+00
 ****

    10 basis functions,    30 primitive gaussians,    10 cartesian basis functions
     8 alpha electrons        8 beta electrons
       nuclear repulsion energy        27.8246143510 Hartrees.
 IExCor=    0 DFT=F Ex=HF Corr=None ExCW=0 ScaHFX=  1.000000
 ScaDFX=  1.000000  1.000000  1.000000  1.000000 ScalE2=  1.000000  1.000000
 IRadAn=      0 IRanWt=     -1 IRanGd=            0 ICorTp=0 IEmpDi=  4
 NAtoms=    2 NActive=    2 NUniq=    2 SFac= 1.00D+00 NAtFMM=   60 NAOKFM=F Big=F
 Integral buffers will be    131072 words long.
 Raffenetti 3 integral format.
 Two-electron integral symmetry is turned off.
 Leave Link  301 at Mon Oct 12 14:23:31 2015, MaxMem=    33554432 cpu:               0.1 elap:               0.1
 (Enter /home/gauss/gdvi03p/gdv/l302.exe)
 NPDir=0 NMtPBC=     1 NCelOv=     1 NCel=       1 NClECP=     1 NCelD=      1
         NCelK=      1 NCelE2=     1 NClLst=     1 CellRange=     0.0.
 One-electron integrals computed using PRISM.
 One-electron integral symmetry used in STVInt
 NBasis=    10 RedAO= T EigKep=  3.67D-01  NBF=    10
 NBsUse=    10 1.00D-06 EigRej= -1.00D+00 NBFU=    10
 Leave Link  302 at Mon Oct 12 14:23:31 2015, MaxMem=    33554432 cpu:               0.1 elap:               0.1
 (Enter /home/gauss/gdvi03p/gdv/l303.exe)
 DipDrv:  MaxL=1.
 Leave Link  303 at Mon Oct 12 14:23:31 2015, MaxMem=    33554432 cpu:               0.0 elap:               0.0
 (Enter /home/gauss/gdvi03p/gdv/l401.exe)
 ExpMin= 3.80D-01 ExpMax= 1.31D+02 ExpMxC= 1.31D+02 IAcc=1 IRadAn=         1 AccDes= 0.00D+00
 Harris functional with IExCor=  205 and IRadAn=       1 diagonalized for initial guess.
 HarFok:  IExCor=  205 AccDes= 0.00D+00 IRadAn=         1 IDoV= 1 UseB2=F ITyADJ=14
 ICtDFT=  3500011 ScaDFX=  1.000000  1.000000  1.000000  1.000000
 FoFCou: FMM=F IPFlag=           0 FMFlag=      100000 FMFlg1=           0
         NFxFlg=           0 DoJE=T BraDBF=F KetDBF=T FulRan=T
         wScrn=  0.000000 ICntrl=       500 IOpCl=  0 I1Cent=   200000004 NGrid=           0
         NMat0=    1 NMatS0=      1 NMatT0=    0 NMatD0=    1 NMtDS0=    0 NMtDT0=    0
 Symmetry not used in FoFCou.
 Harris En= -147.510557514835    
 JPrj=0 DoOrth=F DoCkMO=T.
 Mixing orbitals, IMix= 2 IMixAn=  0 NRI=2 NE=    8 Coef=  7.07106781D-01  7.07106781D-01
 Initial guess <Sx>= 0.0000 <Sy>= 0.0000 <Sz>= 0.0000 <S**2>= 0.0000 S= 0.0000
 Leave Link  401 at Mon Oct 12 14:23:31 2015, MaxMem=    33554432 cpu:               0.1 elap:               0.1
 (Enter /home/gauss/gdvi03p/gdv/l502.exe)
 Keep R1 and R3 ints in memory in canonical form, NReq=805396.
 FoFCou: FMM=F IPFlag=           0 FMFlag=           0 FMFlg1=           0
         NFxFlg=           0 DoJE=F BraDBF=F KetDBF=F FulRan=T
         wScrn=  0.000000 ICntrl=       600 IOpCl=  0 I1Cent=           0 NGrid=           0
         NMat0=    1 NMatS0=     55 NMatT0=    0 NMatD0=    1 NMtDS0=    0 NMtDT0=    0
 Symmetry not used in FoFCou.
 Two-electron integral symmetry not used.
 Complex closed shell SCF:
 Using DIIS extrapolation, IDIIS=  1040.
 NGot=    33554432 LenX=    33548936 LenY=    33547613
 Requested convergence on RMS density matrix=1.00D-08 within 128 cycles.
 Requested convergence on MAX density matrix=1.00D-06.
 Requested convergence on             energy=1.00D-06.
 No special actions if energy rises.

 Cycle   1  Pass 1  IDiag  1:
 E= -147.577034627889    
 DIIS: error= 2.72D-02 at cycle   1 NSaved=   1.
 NSaved= 1 IEnMin= 1 EnMin= -147.577034627889     IErMin= 1 ErrMin= 2.72D-02
 ErrMax= 2.72D-02  0.00D+00 EMaxC= 1.00D-01 BMatC= 7.48D-03 BMatP= 7.48D-03
 IDIUse=3 WtCom= 7.28D-01 WtEn= 2.72D-01
 Coeff-Com:  0.100D+01
 Coeff-En:   0.100D+01
 Coeff:      0.100D+01
 Gap=     0.572 Goal=   None    Shift=    0.000
 GapD=    0.572 DampG=2.000 DampE=0.500 DampFc=1.0000 IDamp=-1.
 RMSDP=4.42D-03 MaxDP=1.42D-02              OVMax= 0.00D+00

 Cycle   2  Pass 1  IDiag  1:
 E= -147.578419962838     Delta-E=       -0.001385334949 Rises=F Damp=F
 DIIS: error= 3.55D-03 at cycle   2 NSaved=   2.
 NSaved= 2 IEnMin= 2 EnMin= -147.578419962838     IErMin= 2 ErrMin= 3.55D-03
 ErrMax= 3.55D-03  0.00D+00 EMaxC= 1.00D-01 BMatC= 1.09D-04 BMatP= 7.48D-03
 IDIUse=3 WtCom= 9.65D-01 WtEn= 3.55D-02
 Coeff-Com: -0.997D-01 0.110D+01
 Coeff-En:   0.000D+00 0.100D+01
 Coeff:     -0.962D-01 0.110D+01
 Gap=     0.572 Goal=   None    Shift=    0.000
 RMSDP=1.14D-03 MaxDP=3.73D-03 DE=-1.39D-03 OVMax= 0.00D+00

 Cycle   3  Pass 1  IDiag  1:
 E= -147.578485947067     Delta-E=       -0.000065984229 Rises=F Damp=F
 DIIS: error= 4.52D-04 at cycle   3 NSaved=   3.
 NSaved= 3 IEnMin= 3 EnMin= -147.578485947067     IErMin= 3 ErrMin= 4.52D-04
 ErrMax= 4.52D-04  0.00D+00 EMaxC= 1.00D-01 BMatC= 2.31D-06 BMatP= 1.09D-04
 IDIUse=3 WtCom= 9.95D-01 WtEn= 4.52D-03
 Coeff-Com:  0.120D-01-0.249D+00 0.124D+01
 Coeff-En:   0.000D+00 0.000D+00 0.100D+01
 Coeff:      0.119D-01-0.248D+00 0.124D+01
 Gap=     0.572 Goal=   None    Shift=    0.000
 RMSDP=2.18D-04 MaxDP=7.15D-04 DE=-6.60D-05 OVMax= 0.00D+00

 Cycle   4  Pass 1  IDiag  1:
 E= -147.578487677306     Delta-E=       -0.000001730239 Rises=F Damp=F
 DIIS: error= 4.97D-07 at cycle   4 NSaved=   4.
 NSaved= 4 IEnMin= 4 EnMin= -147.578487677306     IErMin= 4 ErrMin= 4.97D-07
 ErrMax= 4.97D-07  0.00D+00 EMaxC= 1.00D-01 BMatC= 2.56D-12 BMatP= 2.31D-06
 IDIUse=1 WtCom= 1.00D+00 WtEn= 0.00D+00
 Coeff-Com:  0.852D-06-0.548D-04-0.722D-03 0.100D+01
 Coeff:      0.852D-06-0.548D-04-0.722D-03 0.100D+01
 Gap=     0.572 Goal=   None    Shift=    0.000
 RMSDP=2.27D-07 MaxDP=7.43D-07 DE=-1.73D-06 OVMax= 0.00D+00

 Cycle   5  Pass 1  IDiag  1:
 E= -147.578487677308     Delta-E=       -0.000000000002 Rises=F Damp=F
 DIIS: error= 6.53D-11 at cycle   5 NSaved=   5.
 NSaved= 5 IEnMin= 5 EnMin= -147.578487677308     IErMin= 5 ErrMin= 6.53D-11
 ErrMax= 6.53D-11  0.00D+00 EMaxC= 1.00D-01 BMatC= 5.84D-20 BMatP= 2.56D-12
 IDIUse=1 WtCom= 1.00D+00 WtEn= 0.00D+00
 Large coefficients: NSaved=  5 BigCof=    0.00 CofMax=   10.00 Det=-1.69D-28
 Inversion failed.  Reducing to  4 matrices.
 Coeff-Com: -0.490D-08 0.734D-06-0.527D-03 0.100D+01
 Coeff:     -0.490D-08 0.734D-06-0.527D-03 0.100D+01
 Gap=     0.572 Goal=   None    Shift=    0.000
 RMSDP=3.39D-11 MaxDP=1.12D-10 DE=-1.85D-12 OVMax= 0.00D+00

 SCF Done:  E(CRHF) =  -147.578487677     A.U. after    5 cycles
            NFock=  5  Conv=0.34D-10     -V/T= 2.0109
 KE= 1.459863235126D+02 PE=-4.058409467906D+02 EE= 8.445152124965D+01
 Leave Link  502 at Mon Oct 12 14:23:31 2015, MaxMem=    33554432 cpu:               0.1 elap:               0.1
 (Enter /home/gauss/gdvi03p/gdv/l601.exe)
 Copying SCF densities to generalized density rwf, IOpCl= 2 IROHF=0.

 **********************************************************************

            Population analysis using the SCF density.

 **********************************************************************

 Alpha  occ. eigenvalues --  -20.42343 -20.42280  -1.54548  -0.99493  -0.66489
 Alpha  occ. eigenvalues --   -0.57906  -0.48537  -0.35982
 Alpha virt. eigenvalues --    0.21215   0.71847
     Molecular Orbital Coefficients (Real Part):
                           1         2         3         4         5
                           O         O         O         O         O
     Eigenvalues --   -20.42343 -20.42280  -1.54548  -0.99493  -0.66489
   1 1   O  1S          0.70297   0.70367  -0.16924  -0.18550   0.00000
   2        2S          0.01953   0.01273   0.57702   0.77605   0.00000
   3        2PX         0.00000   0.00000   0.00000   0.00000   0.46650
   4        2PY         0.00000   0.00000   0.00000   0.00000   0.00000
   5        2PZ        -0.00552  -0.00007  -0.16906   0.15571   0.00000
   6 2   O  1S         -0.70297   0.70367  -0.16924   0.18550   0.00000
   7        2S         -0.01953   0.01273   0.57702  -0.77605   0.00000
   8        2PX         0.00000   0.00000   0.00000   0.00000   0.46650
   9        2PY         0.00000   0.00000   0.00000   0.00000   0.00000
  10        2PZ        -0.00552   0.00007   0.16906   0.15571   0.00000
                           6         7         8         9        10
                           O         O         O         V         V
     Eigenvalues --    -0.57906  -0.48537  -0.35982   0.21215   0.71847
   1 1   O  1S         -0.06515   0.00000   0.00000   0.00000   0.09313
   2        2S          0.32686   0.00000   0.00000   0.00000  -0.56857
   3        2PX         0.00000   0.46650   0.54194   0.54194   0.00000
   4        2PY         0.00000   0.00000   0.00000   0.00000   0.00000
   5        2PZ         0.61586   0.00000   0.00000   0.00000   0.93884
   6 2   O  1S         -0.06515   0.00000   0.00000   0.00000  -0.09313
   7        2S          0.32686   0.00000   0.00000   0.00000   0.56857
   8        2PX         0.00000   0.46650  -0.54194  -0.54194   0.00000
   9        2PY         0.00000   0.00000   0.00000   0.00000   0.00000
  10        2PZ        -0.61586   0.00000   0.00000   0.00000   0.93884
     Molecular Orbital Coefficients (Imaginary Part):
                           1         2         3         4         5
                           O         O         O         O         O
     Eigenvalues --   -20.42343 -20.42280  -1.54548  -0.99493  -0.66489
   1 1   O  1S          0.00000   0.00000   0.00000   0.00000   0.00000
   2        2S          0.00000   0.00000   0.00000   0.00000   0.00000
   3        2PX         0.00000   0.00000   0.00000   0.00000   0.00000
   4        2PY         0.00000   0.00000   0.00000   0.00000   0.46650
   5        2PZ         0.00000   0.00000   0.00000   0.00000   0.00000
   6 2   O  1S          0.00000   0.00000   0.00000   0.00000   0.00000
   7        2S          0.00000   0.00000   0.00000   0.00000   0.00000
   8        2PX         0.00000   0.00000   0.00000   0.00000   0.00000
   9        2PY         0.00000   0.00000   0.00000   0.00000   0.46650
  10        2PZ         0.00000   0.00000   0.00000   0.00000   0.00000
                           6         7         8         9        10
                           O         O         O         V         V
     Eigenvalues --    -0.57906  -0.48537  -0.35982   0.21215   0.71847
   1 1   O  1S          0.00000   0.00000   0.00000   0.00000   0.00000
   2        2S          0.00000   0.00000   0.00000   0.00000   0.00000
   3        2PX         0.00000   0.00000   0.00000   0.00000   0.00000
   4        2PY         0.00000  -0.46650   0.54194  -0.54194   0.00000
   5        2PZ         0.00000   0.00000   0.00000   0.00000   0.00000
   6 2   O  1S          0.00000   0.00000   0.00000   0.00000   0.00000
   7        2S          0.00000   0.00000   0.00000   0.00000   0.00000
   8        2PX         0.00000   0.00000   0.00000   0.00000   0.00000
   9        2PY         0.00000  -0.46650  -0.54194   0.54194   0.00000
  10        2PZ         0.00000   0.00000   0.00000   0.00000   0.00000
     Density Matrix (Real Part):
                           1         2         3         4         5
   1 1   O  1S          2.11323
   2        2S         -0.48043   2.08517
   3        2PX         0.00000   0.00000   1.45788
   4        2PY         0.00000   0.00000   0.00000   1.45788
   5        2PZ        -0.08866   0.44896   0.00000   0.00000   0.86429
   6 2   O  1S         -0.00108   0.04046   0.00000   0.00000   0.04241
   7        2S          0.04046  -0.32538   0.00000   0.00000  -0.03397
   8        2PX         0.00000   0.00000   0.28307   0.00000   0.00000
   9        2PY         0.00000   0.00000   0.00000   0.28307   0.00000
  10        2PZ        -0.04241   0.03397   0.00000   0.00000  -0.76718
                           6         7         8         9        10
   6 2   O  1S          2.11323
   7        2S         -0.48043   2.08517
   8        2PX         0.00000   0.00000   1.45788
   9        2PY         0.00000   0.00000   0.00000   1.45788
  10        2PZ         0.08866  -0.44896   0.00000   0.00000   0.86429
     Density Matrix (Imaginary Part):
                           1         2         3         4         5
   1 1   O  1S          0.00000
   2        2S          0.00000   0.00000
   3        2PX         0.00000   0.00000   0.00000
   4        2PY         0.00000   0.00000  -0.58740   0.00000
   5        2PZ         0.00000   0.00000   0.00000   0.00000   0.00000
   6 2   O  1S          0.00000   0.00000   0.00000   0.00000   0.00000
   7        2S          0.00000   0.00000   0.00000   0.00000   0.00000
   8        2PX         0.00000   0.00000   0.00000  -0.58740   0.00000
   9        2PY         0.00000   0.00000   0.58740   0.00000   0.00000
  10        2PZ         0.00000   0.00000   0.00000   0.00000   0.00000
                           6         7         8         9        10
   6 2   O  1S          0.00000
   7        2S          0.00000   0.00000
   8        2PX         0.00000   0.00000   0.00000
   9        2PY         0.00000   0.00000  -0.58740   0.00000
  10        2PZ         0.00000   0.00000   0.00000   0.00000   0.00000
    Full Mulliken population analysis:
                           1         2         3         4         5
   1 1   O  1S          2.11323
   2        2S         -0.11372   2.08517
   3        2PX         0.00000   0.00000   1.45788
   4        2PY         0.00000   0.00000   0.00000   1.45788
   5        2PZ         0.00000   0.00000   0.00000   0.00000   0.86429
   6 2   O  1S          0.00000   0.00090   0.00000   0.00000  -0.00159
   7        2S          0.00090  -0.08981   0.00000   0.00000   0.01078
   8        2PX         0.00000   0.00000   0.04212   0.00000   0.00000
   9        2PY         0.00000   0.00000   0.00000   0.04212   0.00000
  10        2PZ        -0.00159   0.01078   0.00000   0.00000   0.23439
                           6         7         8         9        10
   6 2   O  1S          2.11323
   7        2S         -0.11372   2.08517
   8        2PX         0.00000   0.00000   1.45788
   9        2PY         0.00000   0.00000   0.00000   1.45788
  10        2PZ         0.00000   0.00000   0.00000   0.00000   0.86429
     Gross orbital populations:
                           1
   1 1   O  1S          1.99882
   2        2S          1.89331
   3        2PX         1.50000
   4        2PY         1.50000
   5        2PZ         1.10787
   6 2   O  1S          1.99882
   7        2S          1.89331
   8        2PX         1.50000
   9        2PY         1.50000
  10        2PZ         1.10787
          Condensed to atoms (all electrons):
               1          2
     1  O    7.751012   0.248988
     2  O    0.248988   7.751012
 Mulliken charges:
               1
     1  O    0.000000
     2  O    0.000000
 Sum of Mulliken charges =   0.00000
 Mulliken charges with hydrogens summed into heavy atoms:
               1
     1  O    0.000000
     2  O    0.000000
 Electronic spatial extent (au):  <R**2>=             40.9749
 Charge=              0.0000 electrons
 Dipole moment (field-independent basis, Debye):
    X=              0.0000    Y=              0.0000    Z=              0.0000  Tot=              0.0000
 Quadrupole moment (field-independent basis, Debye-Ang):
   XX=             -8.4759   YY=             -8.4759   ZZ=             -9.6969
   XY=              0.0000   XZ=              0.0000   YZ=              0.0000
 Traceless Quadrupole moment (field-independent basis, Debye-Ang):
   XX=              0.4070   YY=              0.4070   ZZ=             -0.8141
   XY=              0.0000   XZ=              0.0000   YZ=              0.0000
 Octapole moment (field-independent basis, Debye-Ang**2):
  XXX=              0.0000  YYY=              0.0000  ZZZ=              0.0000  XYY=              0.0000
  XXY=              0.0000  XXZ=              0.0000  XZZ=              0.0000  YZZ=              0.0000
  YYZ=              0.0000  XYZ=              0.0000
 Hexadecapole moment (field-independent basis, Debye-Ang**3):
 XXXX=             -3.9635 YYYY=             -3.9635 ZZZZ=            -23.6583 XXXY=              0.0000
 XXXZ=              0.0000 YYYX=              0.0000 YYYZ=              0.0000 ZZZX=              0.0000
 ZZZY=              0.0000 XXYY=             -1.3212 XXZZ=             -4.5962 YYZZ=             -4.5962
 XXYZ=              0.0000 YYXZ=              0.0000 ZZXY=              0.0000
 N-N= 2.782461435104D+01 E-N=-4.058409467903D+02  KE= 1.459863235126D+02
 Cannot compute kinetic energies for complex orbitals or PBC.
 No NMR shielding tensors so no spin-rotation constants.
 Leave Link  601 at Mon Oct 12 14:23:32 2015, MaxMem=    33554432 cpu:               0.1 elap:               0.1
 (Enter /home/gauss/gdvi03p/gdv/l9999.exe)
 Unable to Open any file for archive entry.
 1\1\GINC-MEDUSA\SP\CRHF\STO-3G\O2\JJGOINGS\12-Oct-2015\0\\#p crhf/sto-
 3g gfinput pop=full nosymm\\O2 STO-3G Complex RHF\\0,1\O,0,0.,0.,0.608
 586\O,0,0.,0.,-0.608586\\Version=ES64L-GDVRevI.03+\HF=-147.5784877\EFC
 =0.\RMSD=3.386e-11\Dipole=0.,0.,0.\Quadrupole=0.3026133,0.3026133,-0.6
 052266,0.,0.,0.\PG=D*H [C*(O1.O1)]\\@
 The archive entry for this job was punched.


 Once you get people laughing, they're
 listening and you can tell them almost anything.
                                 -- Herb Gardner
 Job cpu time:       0 days  0 hours  0 minutes  0.9 seconds.
 Elapsed time:       0 days  0 hours  0 minutes  0.7 seconds.
 File lengths (MBytes):  RWF=      5 Int=      0 D2E=      0 Chk=      1 Scr=      1
 Normal termination of Gaussian DV at Mon Oct 12 14:23:32 2015.
