 Entering Gaussian System, Link 0=gdv
 Input=O2_sto3g_ROHF_field.com
 Output=O2_sto3g_ROHF_field.log
 Initial command:
 /home/gauss/gdvi01p/gdv/l1.exe "/home/GauScr/Gau-327.inp" -scrdir="/home/GauScr/"
 Entering Link 1 = /home/gauss/gdvi01p/gdv/l1.exe PID=       328.
  
 Copyright (c) 1988,1990,1992,1993,1995,1998,2003,2009,2014,
            Gaussian, Inc.  All Rights Reserved.
  
 This is the private, development version of
 the Gaussian(R) DV system of programs. It is based on
 the Gaussian(R) 09 system (copyright 2009, Gaussian, Inc.),
 the Gaussian(R) 03 system (copyright 2003, Gaussian, Inc.),
 the Gaussian(R) 98 system (copyright 1998, Gaussian, Inc.),
 the Gaussian(R) 94 system (copyright 1995, Gaussian, Inc.),
 the Gaussian 92(TM) system (copyright 1992, Gaussian, Inc.),
 the Gaussian 90(TM) system (copyright 1990, Gaussian, Inc.),
 the Gaussian 88(TM) system (copyright 1988, Gaussian, Inc.),
 the Gaussian 86(TM) system (copyright 1986, Carnegie Mellon
 University), and the Gaussian 82(TM) system (copyright 1983,
 Carnegie Mellon University). Gaussian is a federally registered
 trademark of Gaussian, Inc.
  
 This software contains proprietary and confidential information,
 including trade secrets, belonging to Gaussian, Inc.
  
 This software is provided under written license and may be
 used, copied, transmitted, or stored only in accord with that
 written license.
  
 The following legend is applicable only to US Government
 contracts under FAR:
  
                    RESTRICTED RIGHTS LEGEND
  
 Use, reproduction and disclosure by the US Government is
 subject to restrictions as set forth in subparagraphs (a)
 and (c) of the Commercial Computer Software - Restricted
 Rights clause in FAR 52.227-19.
  
 Gaussian, Inc.
 340 Quinnipiac St., Bldg. 40, Wallingford CT 06492
  
  
 ---------------------------------------------------------------
 Warning -- This program may not be used in any manner that
 competes with the business of Gaussian, Inc. or will provide
 assistance to any competitor of Gaussian, Inc.  The licensee
 of this program is prohibited from giving any competitor of
 Gaussian, Inc. access to this program.  By using this program,
 the user acknowledges that Gaussian, Inc. is engaged in the
 business of creating and licensing software in the field of
 computational chemistry and represents and warrants to the
 licensee that it is not a competitor of Gaussian, Inc. and that
 it will not use this program in any manner prohibited above.
 ---------------------------------------------------------------
  

 Cite this work as:
 Gaussian Development Version, Revision I.01+,
 M. J. Frisch, G. W. Trucks, H. B. Schlegel, G. E. Scuseria, 
 M. A. Robb, J. R. Cheeseman, G. Scalmani, V. Barone, B. Mennucci, 
 G. A. Petersson, H. Nakatsuji, M. Caricato, X. Li, H. P. Hratchian, 
 A. F. Izmaylov, J. Bloino, B. G. Janesko, F. Lipparini, G. Zheng, 
 J. L. Sonnenberg, W. Liang, M. Hada, M. Ehara, K. Toyota, R. Fukuda, 
 J. Hasegawa, M. Ishida, T. Nakajima, Y. Honda, O. Kitao, H. Nakai, 
 T. Vreven, J. A. Montgomery, Jr., J. E. Peralta, F. Ogliaro, 
 M. Bearpark, J. J. Heyd, E. Brothers, K. N. Kudin, V. N. Staroverov, 
 T. Keith, R. Kobayashi, J. Normand, K. Raghavachari, A. Rendell, 
 J. C. Burant, S. S. Iyengar, J. Tomasi, M. Cossi, N. Rega, 
 J. M. Millam, M. Klene, J. E. Knox, J. B. Cross, V. Bakken, 
 C. Adamo, J. Jaramillo, R. Gomperts, R. E. Stratmann, O. Yazyev, 
 A. J. Austin, R. Cammi, C. Pomelli, J. W. Ochterski, R. L. Martin, 
 K. Morokuma, V. G. Zakrzewski, G. A. Voth, P. Salvador, 
 J. J. Dannenberg, S. Dapprich, P. V. Parandekar, N. J. Mayhall, 
 A. D. Daniels, O. Farkas, J. B. Foresman, J. V. Ortiz, 
 J. Cioslowski, and D. J. Fox, Gaussian, Inc., Wallingford CT, 2010.
 
 *******************************************
 Gaussian DV:  ES64L-GDVRevI.01+ 11-Sep-2014
                 29-Sep-2015 
 *******************************************
 --------------------------------------------------
 #p rohf/sto-3g gfinput pop=full nosymm Field=X-100
 --------------------------------------------------
 1/38=1,172=1/1;
 2/12=2,15=1,17=6,18=5,40=1/2;
 3/6=3,11=2,14=1,15=-100,24=10,25=1,30=1,116=101/1,2,3;
 4//1;
 5/5=2,38=5/2;
 6/7=3,28=1/1;
 99/5=1,9=1/99;
 Leave Link    1 at Tue Sep 29 11:37:15 2015, MaxMem=           0 cpu:               0.0 elap:               0.0
 (Enter /home/gauss/gdvi01p/gdv/l101.exe)
 ---------
 O2 STO-3G
 ---------
 Symbolic Z-matrix:
 Charge =  0 Multiplicity = 3
 O                     0.        0.        0.60859 
 O                     0.        0.       -0.60859 
 
 ITRead=  0  0
 MicOpt= -1 -1
 NAtoms=      2 NQM=        2 NQMF=       0 NMMI=      0 NMMIF=      0
                NMic=       0 NMicF=      0.
                    Isotopes and Nuclear Properties:
 (Nuclear quadrupole moments (NQMom) in fm**2, nuclear magnetic moments (NMagM)
  in nuclear magnetons)

  Atom         1           2
 IAtWgt=          16          16
 AtmWgt=  15.9949146  15.9949146
 NucSpn=           0           0
 AtZEff=   0.0000000   0.0000000
 NQMom=    0.0000000   0.0000000
 NMagM=    0.0000000   0.0000000
 AtZNuc=   8.0000000   8.0000000
 Leave Link  101 at Tue Sep 29 11:37:15 2015, MaxMem=    33554432 cpu:               0.1 elap:               0.1
 (Enter /home/gauss/gdvi01p/gdv/l202.exe)
                          Input orientation:                          
 ---------------------------------------------------------------------
 Center     Atomic      Atomic             Coordinates (Angstroms)
 Number     Number       Type             X           Y           Z
 ---------------------------------------------------------------------
      1          8           0        0.000000    0.000000    0.608586
      2          8           0        0.000000    0.000000   -0.608586
 ---------------------------------------------------------------------
 Symmetry turned off by external request.
 Stoichiometry    O2(3)
 Framework group  D*H[C*(O.O)]
 Deg. of freedom     1
 Full point group                 D*H     NOp   8
 Rotational constants (GHZ):      0.0000000     42.6541569     42.6541569
 Leave Link  202 at Tue Sep 29 11:37:15 2015, MaxMem=    33554432 cpu:               0.0 elap:               0.0
 (Enter /home/gauss/gdvi01p/gdv/l301.exe)
 Standard basis: STO-3G (5D, 7F)
 Ernie: Thresh=  0.10000D-02 Tol=  0.10000D-05 Strict=F.
 The following finite field(s) will be applied:
 An electric field of             -0.0100  0.0000  0.0000
 AO basis set in the form of general basis input (Overlap normalization):
      1 0
 S   3 1.00       0.000000000000
      0.1307093214D+03  0.1543289673D+00
      0.2380886605D+02  0.5353281423D+00
      0.6443608313D+01  0.4446345422D+00
 SP   3 1.00       0.000000000000
      0.5033151319D+01 -0.9996722919D-01  0.1559162750D+00
      0.1169596125D+01  0.3995128261D+00  0.6076837186D+00
      0.3803889600D+00  0.7001154689D+00  0.3919573931D+00
 ****
      2 0
 S   3 1.00       0.000000000000
      0.1307093214D+03  0.1543289673D+00
      0.2380886605D+02  0.5353281423D+00
      0.6443608313D+01  0.4446345422D+00
 SP   3 1.00       0.000000000000
      0.5033151319D+01 -0.9996722919D-01  0.1559162750D+00
      0.1169596125D+01  0.3995128261D+00  0.6076837186D+00
      0.3803889600D+00  0.7001154689D+00  0.3919573931D+00
 ****

    10 basis functions,    30 primitive gaussians,    10 cartesian basis functions
     9 alpha electrons        7 beta electrons
       nuclear repulsion energy        27.8246143510 Hartrees.
 IExCor=    0 DFT=F Ex=HF Corr=None ExCW=0 ScaHFX=  1.000000
 ScaDFX=  1.000000  1.000000  1.000000  1.000000 ScalE2=  1.000000  1.000000
 IRadAn=      0 IRanWt=     -1 IRanGd=            0 ICorTp=0 IEmpDi=  4
 NAtoms=    2 NActive=    2 NUniq=    2 SFac= 1.00D+00 NAtFMM=   60 NAOKFM=F Big=F
 Integral buffers will be    131072 words long.
 Raffenetti 2 integral format.
 Two-electron integral symmetry is turned off.
 Leave Link  301 at Tue Sep 29 11:37:15 2015, MaxMem=    33554432 cpu:               0.0 elap:               0.0
 (Enter /home/gauss/gdvi01p/gdv/l302.exe)
 NPDir=0 NMtPBC=     1 NCelOv=     1 NCel=       1 NClECP=     1 NCelD=      1
         NCelK=      1 NCelE2=     1 NClLst=     1 CellRange=     0.0.
 One-electron integrals computed using PRISM.
 One-electron integral symmetry used in STVInt
 NBasis=    10 RedAO= T EigKep=  3.67D-01  NBF=    10
 NBsUse=    10 1.00D-06 EigRej= -1.00D+00 NBFU=    10
 Leave Link  302 at Tue Sep 29 11:37:15 2015, MaxMem=    33554432 cpu:               0.1 elap:               0.1
 (Enter /home/gauss/gdvi01p/gdv/l303.exe)
 DipDrv:  MaxL=1.
 The nuclear repulsion energy is now        27.8246143510 hartrees.
 Leave Link  303 at Tue Sep 29 11:37:15 2015, MaxMem=    33554432 cpu:               0.0 elap:               0.0
 (Enter /home/gauss/gdvi01p/gdv/l401.exe)
 ExpMin= 3.80D-01 ExpMax= 1.31D+02 ExpMxC= 1.31D+02 IAcc=1 IRadAn=         1 AccDes= 0.00D+00
 Harris functional with IExCor=  205 and IRadAn=       1 diagonalized for initial guess.
 HarFok:  IExCor=  205 AccDes= 0.00D+00 IRadAn=         1 IDoV= 1 UseB2=F ITyADJ=14
 ICtDFT=  3500011 ScaDFX=  1.000000  1.000000  1.000000  1.000000
 FoFCou: FMM=F IPFlag=           0 FMFlag=      100000 FMFlg1=           0
         NFxFlg=           0 DoJE=T BraDBF=F KetDBF=T FulRan=T
         wScrn=  0.000000 ICntrl=       500 IOpCl=  0 I1Cent=   200000004 NGrid=           0
         NMat0=    1 NMatS0=      1 NMatT0=    0 NMatD0=    1 NMtDS0=    0 NMtDT0=    0
 Symmetry not used in FoFCou.
 Harris En= -147.510630486682    
 JPrj=0 DoOrth=F DoCkMO=F.
 Leave Link  401 at Tue Sep 29 11:37:15 2015, MaxMem=    33554432 cpu:               0.1 elap:               0.1
 (Enter /home/gauss/gdvi01p/gdv/l502.exe)
 Keep R1 and R2 ints in memory in canonical form, NReq=805396.
 FoFCou: FMM=F IPFlag=           0 FMFlag=           0 FMFlg1=           0
         NFxFlg=           0 DoJE=F BraDBF=F KetDBF=F FulRan=T
         wScrn=  0.000000 ICntrl=       600 IOpCl=  0 I1Cent=           0 NGrid=           0
         NMat0=    1 NMatS0=     55 NMatT0=    0 NMatD0=    1 NMtDS0=    0 NMtDT0=    0
 Symmetry not used in FoFCou.
 Two-electron integral symmetry not used.
 Restricted open shell SCF:
 Using DIIS extrapolation, IDIIS=  1040.
 NGot=    33554432 LenX=    33550028 LenY=    33549146
 Requested convergence on RMS density matrix=1.00D-08 within 128 cycles.
 Requested convergence on MAX density matrix=1.00D-06.
 Requested convergence on             energy=1.00D-06.
 No special actions if energy rises.

 Cycle   1  Pass 1  IDiag  1:
 E= -147.631013047929    
 DIIS: error= 2.72D-02 at cycle   1 NSaved=   1.
 NSaved= 1 IEnMin= 1 EnMin= -147.631013047929     IErMin= 1 ErrMin= 2.72D-02
 ErrMax= 2.72D-02  0.00D+00 EMaxC= 1.00D-01 BMatC= 3.74D-03 BMatP= 3.74D-03
 IDIUse=3 WtCom= 7.28D-01 WtEn= 2.72D-01
 Coeff-Com:  0.100D+01
 Coeff-En:   0.100D+01
 Coeff:      0.100D+01
 Gap=     0.752 Goal=   None    Shift=    0.000
 GapD=    0.752 DampG=2.000 DampE=0.500 DampFc=1.0000 IDamp=-1.
 RMSDP=4.55D-03 MaxDP=1.45D-02              OVMax= 0.00D+00

 Cycle   2  Pass 1  IDiag  1:
 E= -147.632414942574     Delta-E=       -0.001401894646 Rises=F Damp=F
 DIIS: error= 3.36D-03 at cycle   2 NSaved=   2.
 NSaved= 2 IEnMin= 2 EnMin= -147.632414942574     IErMin= 2 ErrMin= 3.36D-03
 ErrMax= 3.36D-03  0.00D+00 EMaxC= 1.00D-01 BMatC= 4.80D-05 BMatP= 3.74D-03
 IDIUse=3 WtCom= 9.66D-01 WtEn= 3.36D-02
 Coeff-Com: -0.981D-01 0.110D+01
 Coeff-En:   0.000D+00 0.100D+01
 Coeff:     -0.948D-01 0.109D+01
 Gap=     0.754 Goal=   None    Shift=    0.000
 RMSDP=1.07D-03 MaxDP=3.50D-03 DE=-1.40D-03 OVMax= 0.00D+00

 Cycle   3  Pass 1  IDiag  1:
 E= -147.632470961895     Delta-E=       -0.000056019321 Rises=F Damp=F
 DIIS: error= 3.67D-04 at cycle   3 NSaved=   3.
 NSaved= 3 IEnMin= 3 EnMin= -147.632470961895     IErMin= 3 ErrMin= 3.67D-04
 ErrMax= 3.67D-04  0.00D+00 EMaxC= 1.00D-01 BMatC= 7.33D-07 BMatP= 4.80D-05
 IDIUse=3 WtCom= 9.96D-01 WtEn= 3.67D-03
 Coeff-Com:  0.103D-01-0.215D+00 0.120D+01
 Coeff-En:   0.000D+00 0.000D+00 0.100D+01
 Coeff:      0.102D-01-0.214D+00 0.120D+01
 Gap=     0.754 Goal=   None    Shift=    0.000
 RMSDP=1.73D-04 MaxDP=5.66D-04 DE=-5.60D-05 OVMax= 0.00D+00

 Cycle   4  Pass 1  IDiag  1:
 E= -147.632472052922     Delta-E=       -0.000001091026 Rises=F Damp=F
 DIIS: error= 4.53D-06 at cycle   4 NSaved=   4.
 NSaved= 4 IEnMin= 4 EnMin= -147.632472052922     IErMin= 4 ErrMin= 4.53D-06
 ErrMax= 4.53D-06  0.00D+00 EMaxC= 1.00D-01 BMatC= 1.22D-10 BMatP= 7.33D-07
 IDIUse=1 WtCom= 1.00D+00 WtEn= 0.00D+00
 Coeff-Com: -0.661D-02 0.138D+00-0.778D+00 0.165D+01
 Coeff:     -0.661D-02 0.138D+00-0.778D+00 0.165D+01
 Gap=     0.754 Goal=   None    Shift=    0.000
 RMSDP=4.68D-06 MaxDP=1.73D-05 DE=-1.09D-06 OVMax= 0.00D+00

 Cycle   5  Pass 1  IDiag  1:
 E= -147.632472053410     Delta-E=       -0.000000000488 Rises=F Damp=F
 DIIS: error= 5.04D-07 at cycle   5 NSaved=   5.
 NSaved= 5 IEnMin= 5 EnMin= -147.632472053410     IErMin= 5 ErrMin= 5.04D-07
 ErrMax= 5.04D-07  0.00D+00 EMaxC= 1.00D-01 BMatC= 1.52D-12 BMatP= 1.22D-10
 IDIUse=1 WtCom= 1.00D+00 WtEn= 0.00D+00
 Coeff-Com:  0.125D-06-0.106D-04 0.250D-03-0.127D+00 0.113D+01
 Coeff:      0.125D-06-0.106D-04 0.250D-03-0.127D+00 0.113D+01
 Gap=     0.754 Goal=   None    Shift=    0.000
 RMSDP=5.23D-07 MaxDP=2.17D-06 DE=-4.88D-10 OVMax= 0.00D+00

 Cycle   6  Pass 1  IDiag  1:
 E= -147.632472053413     Delta-E=       -0.000000000003 Rises=F Damp=F
 DIIS: error= 5.19D-08 at cycle   6 NSaved=   6.
 NSaved= 6 IEnMin= 6 EnMin= -147.632472053413     IErMin= 6 ErrMin= 5.19D-08
 ErrMax= 5.19D-08  0.00D+00 EMaxC= 1.00D-01 BMatC= 1.60D-14 BMatP= 1.52D-12
 IDIUse=1 WtCom= 1.00D+00 WtEn= 0.00D+00
 Large coefficients: NSaved=  6 BigCof=    0.00 CofMax=   10.00 Det=-1.09D-24
 Inversion failed.  Reducing to  5 matrices.
 Coeff-Com:  0.611D-07-0.109D-04 0.146D-01-0.262D-01 0.101D+01
 Coeff:      0.611D-07-0.109D-04 0.146D-01-0.262D-01 0.101D+01
 Gap=     0.754 Goal=   None    Shift=    0.000
 RMSDP=7.98D-08 MaxDP=2.84D-07 DE=-3.04D-12 OVMax= 0.00D+00

 Cycle   7  Pass 1  IDiag  1:
 E= -147.632472053413     Delta-E=        0.000000000000 Rises=F Damp=F
 DIIS: error= 7.96D-09 at cycle   7 NSaved=   6.
 NSaved= 6 IEnMin= 6 EnMin= -147.632472053413     IErMin= 6 ErrMin= 7.96D-09
 ErrMax= 7.96D-09  0.00D+00 EMaxC= 1.00D-01 BMatC= 3.76D-16 BMatP= 1.60D-14
 IDIUse=1 WtCom= 1.00D+00 WtEn= 0.00D+00
 Large coefficients: NSaved=  6 BigCof=    0.00 CofMax=   10.00 Det=-1.87D-25
 Inversion failed.  Reducing to  5 matrices.
 Large coefficients: NSaved=  5 BigCof=    0.00 CofMax=   10.00 Det=-5.88D-25
 Inversion failed.  Reducing to  4 matrices.
 Coeff-Com:  0.560D-05 0.100D-03-0.179D+00 0.118D+01
 Coeff:      0.560D-05 0.100D-03-0.179D+00 0.118D+01
 Gap=     0.754 Goal=   None    Shift=    0.000
 RMSDP=1.44D-08 MaxDP=5.12D-08 DE=-3.13D-13 OVMax= 0.00D+00

 Cycle   8  Pass 1  IDiag  1:
 E= -147.632472053413     Delta-E=        0.000000000000 Rises=F Damp=F
 DIIS: error= 1.92D-11 at cycle   8 NSaved=   5.
 NSaved= 5 IEnMin= 4 EnMin= -147.632472053413     IErMin= 5 ErrMin= 1.92D-11
 ErrMax= 1.92D-11  0.00D+00 EMaxC= 1.00D-01 BMatC= 2.20D-21 BMatP= 3.76D-16
 IDIUse=1 WtCom= 1.00D+00 WtEn= 0.00D+00
 Large coefficients: NSaved=  5 BigCof=    0.00 CofMax=   10.00 Det=-4.80D-28
 Inversion failed.  Reducing to  4 matrices.
 Large coefficients: NSaved=  4 BigCof=    0.00 CofMax=   10.00 Det=-4.17D-25
 Inversion failed.  Reducing to  3 matrices.
 Large coefficients: NSaved=  3 BigCof=    0.00 CofMax=   10.00 Det=-2.43D-23
 Inversion failed.  Reducing to  2 matrices.
 Coeff-Com: -0.242D-02 0.100D+01
 Coeff:     -0.242D-02 0.100D+01
 Gap=     0.754 Goal=   None    Shift=    0.000
 RMSDP=3.50D-11 MaxDP=1.25D-10 DE= 0.00D+00 OVMax= 0.00D+00

 SCF Done:  E(ROHF) =  -147.632472053     A.U. after    8 cycles
            NFock=  8  Conv=0.35D-10     -V/T= 2.0113
 <Sx>= 0.0000 <Sy>= 0.0000 <Sz>= 1.0000 <S**2>= 2.0000 S= 1.0000
 <L.S>= 0.000000000000E+00
 KE= 1.459863166294D+02 PE=-4.058410550691D+02 EE= 8.439765203525D+01
 Annihilation of the first spin contaminant:
 S**2 before annihilation     2.0000,   after     2.0000
 Leave Link  502 at Tue Sep 29 11:37:16 2015, MaxMem=    33554432 cpu:               0.1 elap:               0.1
 (Enter /home/gauss/gdvi01p/gdv/l601.exe)
 Copying SCF densities to generalized density rwf, IOpCl= 0 IROHF=1.

 **********************************************************************

            Population analysis using the SCF density.

 **********************************************************************

 Alpha  occ. eigenvalues --  -20.41843 -20.41796  -1.52517  -0.96268  -0.56749
 Alpha  occ. eigenvalues --   -0.53009  -0.52989  -0.04922  -0.04920
 Alpha virt. eigenvalues --    0.70497
     Molecular Orbital Coefficients:
                           1         2         3         4         5
                           O         O         O         O         O
     Eigenvalues --   -20.41843 -20.41796  -1.52517  -0.96268  -0.56749
   1 1   O  1S          0.70304   0.70373  -0.16846  -0.18524  -0.06633
   2        2S          0.01926   0.01252   0.57410   0.77603   0.33094
   3        2PX        -0.00002  -0.00001  -0.00395  -0.00677  -0.04502
   4        2PY         0.00000   0.00000   0.00000   0.00000   0.00000
   5        2PZ        -0.00558  -0.00011  -0.17450   0.15570   0.61298
   6 2   O  1S         -0.70304   0.70373  -0.16846   0.18524  -0.06633
   7        2S         -0.01926   0.01252   0.57410  -0.77603   0.33094
   8        2PX         0.00002  -0.00001  -0.00395   0.00677  -0.04502
   9        2PY         0.00000   0.00000   0.00000   0.00000   0.00000
  10        2PZ        -0.00558   0.00011   0.17450   0.15570  -0.61298
                           6         7         8         9        10
                           O         O         O         O         V
     Eigenvalues --    -0.53009  -0.52989  -0.04922  -0.04920   0.70497
   1 1   O  1S          0.00000  -0.00554   0.00000  -0.00143   0.09313
   2        2S          0.00000   0.02608   0.00000   0.00573  -0.56858
   3        2PX         0.00000   0.65818   0.00000   0.76639  -0.00151
   4        2PY         0.65973   0.00000   0.76642   0.00000   0.00000
   5        2PZ         0.00000   0.04088   0.00000   0.00323   0.93884
   6 2   O  1S          0.00000  -0.00554   0.00000   0.00143  -0.09313
   7        2S          0.00000   0.02608   0.00000  -0.00573   0.56858
   8        2PX         0.00000   0.65818   0.00000  -0.76639   0.00151
   9        2PY         0.65973   0.00000  -0.76642   0.00000   0.00000
  10        2PZ         0.00000  -0.04088   0.00000   0.00323   0.93884
     Alpha Density Matrix:
                           1         2         3         4         5
   1 1   O  1S          1.05662
   2        2S         -0.24021   1.04258
   3        2PX         0.00014  -0.00086   1.02264
   4        2PY         0.00000   0.00000   0.00000   1.02264
   5        2PZ        -0.04433   0.22448   0.00142   0.00000   0.43215
   6 2   O  1S         -0.00054   0.02023  -0.00014   0.00000   0.02120
   7        2S          0.02023  -0.16268   0.00086   0.00000  -0.01699
   8        2PX        -0.00014   0.00086  -0.15216   0.00000  -0.00142
   9        2PY         0.00000   0.00000   0.00000  -0.15217   0.00000
  10        2PZ        -0.02120   0.01699   0.00142   0.00000  -0.38358
                           6         7         8         9        10
   6 2   O  1S          1.05662
   7        2S         -0.24021   1.04258
   8        2PX         0.00014  -0.00086   1.02264
   9        2PY         0.00000   0.00000   0.00000   1.02264
  10        2PZ         0.04433  -0.22448  -0.00142   0.00000   0.43215
     Beta Density Matrix:
                           1         2         3         4         5
   1 1   O  1S          1.05661
   2        2S         -0.24020   1.04255
   3        2PX         0.00124  -0.00525   0.43528
   4        2PY         0.00000   0.00000   0.00000   0.43524
   5        2PZ        -0.04432   0.22446  -0.00105   0.00000   0.43214
   6 2   O  1S         -0.00054   0.02022  -0.00124   0.00000   0.02120
   7        2S          0.02022  -0.16265   0.00525   0.00000  -0.01697
   8        2PX        -0.00124   0.00525   0.43519   0.00000   0.00105
   9        2PY         0.00000   0.00000   0.00000   0.43524   0.00000
  10        2PZ        -0.02120   0.01697  -0.00105   0.00000  -0.38359
                           6         7         8         9        10
   6 2   O  1S          1.05661
   7        2S         -0.24020   1.04255
   8        2PX         0.00124  -0.00525   0.43528
   9        2PY         0.00000   0.00000   0.00000   0.43524
  10        2PZ         0.04432  -0.22446   0.00105   0.00000   0.43214
    Full Mulliken population analysis:
                           1         2         3         4         5
   1 1   O  1S          2.11323
   2        2S         -0.11372   2.08513
   3        2PX         0.00000   0.00000   1.45792
   4        2PY         0.00000   0.00000   0.00000   1.45788
   5        2PZ         0.00000   0.00000   0.00000   0.00000   0.86429
   6 2   O  1S          0.00000   0.00090   0.00000   0.00000  -0.00159
   7        2S          0.00090  -0.08980   0.00000   0.00000   0.01077
   8        2PX         0.00000   0.00000   0.04211   0.00000   0.00000
   9        2PY         0.00000   0.00000   0.00000   0.04212   0.00000
  10        2PZ        -0.00159   0.01077   0.00000   0.00000   0.23439
                           6         7         8         9        10
   6 2   O  1S          2.11323
   7        2S         -0.11372   2.08513
   8        2PX         0.00000   0.00000   1.45792
   9        2PY         0.00000   0.00000   0.00000   1.45788
  10        2PZ         0.00000   0.00000   0.00000   0.00000   0.86429
     Gross orbital populations:
                         Total     Alpha     Beta      Spin
   1 1   O  1S          1.99882   0.99941   0.99941   0.00000
   2        2S          1.89328   0.94665   0.94663   0.00003
   3        2PX         1.50004   1.00000   0.50004   0.49996
   4        2PY         1.50000   1.00000   0.50000   0.50000
   5        2PZ         1.10786   0.55394   0.55392   0.00001
   6 2   O  1S          1.99882   0.99941   0.99941   0.00000
   7        2S          1.89328   0.94665   0.94663   0.00003
   8        2PX         1.50004   1.00000   0.50004   0.49996
   9        2PY         1.50000   1.00000   0.50000   0.50000
  10        2PZ         1.10786   0.55394   0.55392   0.00001
          Condensed to atoms (all electrons):
               1          2
     1  O    7.751016   0.248984
     2  O    0.248984   7.751016
          Atomic-Atomic Spin Densities.
               1          2
     1  O    1.174801  -0.174801
     2  O   -0.174801   1.174801
 Mulliken charges and spin densities:
               1          2
     1  O    0.000000   1.000000
     2  O    0.000000   1.000000
 Sum of Mulliken charges =   0.00000   2.00000
 Mulliken charges and spin densities with hydrogens summed into heavy atoms:
               1          2
     1  O    0.000000   1.000000
     2  O    0.000000   1.000000
 Electronic spatial extent (au):  <R**2>=             40.9748
 Charge=              0.0000 electrons
 Dipole moment (field-independent basis, Debye):
    X=              0.0291    Y=              0.0000    Z=              0.0000  Tot=              0.0291
 Quadrupole moment (field-independent basis, Debye-Ang):
   XX=             -8.4759   YY=             -8.4758   ZZ=             -9.6968
   XY=              0.0000   XZ=              0.0000   YZ=              0.0000
 Traceless Quadrupole moment (field-independent basis, Debye-Ang):
   XX=              0.4070   YY=              0.4070   ZZ=             -0.8140
   XY=              0.0000   XZ=              0.0000   YZ=              0.0000
 Octapole moment (field-independent basis, Debye-Ang**2):
  XXX=              0.0096  YYY=              0.0000  ZZZ=              0.0000  XYY=              0.0032
  XXY=              0.0000  XXZ=              0.0000  XZZ=              0.0165  YZZ=              0.0000
  YYZ=              0.0000  XYZ=              0.0000
 Hexadecapole moment (field-independent basis, Debye-Ang**3):
 XXXX=             -3.9636 YYYY=             -3.9635 ZZZZ=            -23.6581 XXXY=              0.0000
 XXXZ=              0.0000 YYYX=              0.0000 YYYZ=              0.0000 ZZZX=              0.0000
 ZZZY=              0.0000 XXYY=             -1.3212 XXZZ=             -4.5962 YYZZ=             -4.5962
 XXYZ=              0.0000 YYXZ=              0.0000 ZZXY=              0.0000
 N-N= 2.782461435104D+01 E-N=-4.058410550691D+02  KE= 1.459863166294D+02
 Orbital energies and kinetic energies (alpha):
                                 1                 2
   1         O               -20.418431         28.662866
   2         O               -20.417958         28.720448
   3         O                -1.525171          2.500303
   4         O                -0.962679          3.204417
   5         O                -0.567490          2.497159
   6         O                -0.530088          2.252565
   7         O                -0.529885          2.253953
   8         O                -0.049221          2.901449
   9         O                -0.049198          2.901445
  10         V                 0.704968          4.578614
 Total kinetic energy from orbitals= 1.517892107018D+02
                          Isotropic Fermi Contact Couplings
        Atom                 a.u.       MegaHertz       Gauss      10(-4) cm-1
     1  O(17)              0.00014      -0.04362      -0.01557      -0.01455
     2  O(17)              0.00014      -0.04362      -0.01557      -0.01455
 --------------------------------------------------------
       Center         ----  Spin Dipole Couplings  ----
                      3XX-RR        3YY-RR        3ZZ-RR
 --------------------------------------------------------
     1   Atom        0.757491      0.757687     -1.515178
     2   Atom        0.757491      0.757687     -1.515178
 --------------------------------------------------------
                        XY            XZ            YZ
 --------------------------------------------------------
     1   Atom        0.000000      0.010347      0.000000
     2   Atom        0.000000     -0.010347      0.000000
 --------------------------------------------------------


 ---------------------------------------------------------------------------------
              Anisotropic Spin Dipole Couplings in Principal Axis System
 ---------------------------------------------------------------------------------

       Atom             a.u.   MegaHertz   Gauss  10(-4) cm-1        Axes

              Baa    -1.5152   109.641    39.123    36.572 -0.0046  0.0000  1.0000
     1 O(17)  Bbb     0.7575   -54.815   -19.559   -18.284  1.0000  0.0000  0.0046
              Bcc     0.7577   -54.826   -19.563   -18.288  0.0000  1.0000  0.0000
 
              Baa    -1.5152   109.641    39.123    36.572  0.0046  0.0000  1.0000
     2 O(17)  Bbb     0.7575   -54.815   -19.559   -18.284  1.0000  0.0000 -0.0046
              Bcc     0.7577   -54.826   -19.563   -18.288  0.0000  1.0000  0.0000
 

 ---------------------------------------------------------------------------------

 No NMR shielding tensors so no spin-rotation constants.
 Leave Link  601 at Tue Sep 29 11:37:16 2015, MaxMem=    33554432 cpu:               0.2 elap:               0.2
 (Enter /home/gauss/gdvi01p/gdv/l9999.exe)
 Unable to Open any file for archive entry.
 1\1\GINC-MEDUSA\SP\ROHF\STO-3G\O2(3)\DBWY\29-Sep-2015\0\\#p rohf/sto-3
 g gfinput pop=full nosymm Field=X-100\\O2 STO-3G\\0,3\O,0,0.,0.,0.6085
 86\O,0,0.,0.,-0.608586\\Version=ES64L-GDVRevI.01+\HF=-147.6324721\RMSD
 =3.498e-11\Dipole=0.0114405,0.,0.\Quadrupole=0.3025632,0.3026037,-0.60
 51669,0.,0.,0.\PG=D*H [C*(O1.O1)]\\@
 The archive entry for this job was punched.


 YOU KNOW YOU'VE SPOKEN TOO LONG WHEN THE AUDIENCE STOPS LOOKING AT
 THEIR WATCHES AND STARTS SHAKING THEM.
 Job cpu time:       0 days  0 hours  0 minutes  0.7 seconds.
 Elapsed time:       0 days  0 hours  0 minutes  0.6 seconds.
 File lengths (MBytes):  RWF=      5 Int=      0 D2E=      0 Chk=      1 Scr=      1
 Normal termination of Gaussian DV at Tue Sep 29 11:37:16 2015.
