 Entering Gaussian System, Link 0=gdv
 Input=propylene-oxide_ccpVDZ_ROHF_field.com
 Output=propylene-oxide_ccpVDZ_ROHF_field.log
 Initial command:
 /home/gauss/gdvi03p/gdv/l1.exe "/home/GauScr/Gau-26457.inp" -scrdir="/home/GauScr/"
 Entering Link 1 = /home/gauss/gdvi03p/gdv/l1.exe PID=     26458.
  
 Copyright (c) 1988,1990,1992,1993,1995,1998,2003,2009,2015,
            Gaussian, Inc.  All Rights Reserved.
  
 This is the private, development version of
 the Gaussian(R) DV system of programs. It is based on
 the Gaussian(R) 09 system (copyright 2009, Gaussian, Inc.),
 the Gaussian(R) 03 system (copyright 2003, Gaussian, Inc.),
 the Gaussian(R) 98 system (copyright 1998, Gaussian, Inc.),
 the Gaussian(R) 94 system (copyright 1995, Gaussian, Inc.),
 the Gaussian 92(TM) system (copyright 1992, Gaussian, Inc.),
 the Gaussian 90(TM) system (copyright 1990, Gaussian, Inc.),
 the Gaussian 88(TM) system (copyright 1988, Gaussian, Inc.),
 the Gaussian 86(TM) system (copyright 1986, Carnegie Mellon
 University), and the Gaussian 82(TM) system (copyright 1983,
 Carnegie Mellon University). Gaussian is a federally registered
 trademark of Gaussian, Inc.
  
 This software contains proprietary and confidential information,
 including trade secrets, belonging to Gaussian, Inc.
  
 This software is provided under written license and may be
 used, copied, transmitted, or stored only in accord with that
 written license.
  
 The following legend is applicable only to US Government
 contracts under FAR:
  
                    RESTRICTED RIGHTS LEGEND
  
 Use, reproduction and disclosure by the US Government is
 subject to restrictions as set forth in subparagraphs (a)
 and (c) of the Commercial Computer Software - Restricted
 Rights clause in FAR 52.227-19.
  
 Gaussian, Inc.
 340 Quinnipiac St., Bldg. 40, Wallingford CT 06492
  
  
 ---------------------------------------------------------------
 Warning -- This program may not be used in any manner that
 competes with the business of Gaussian, Inc. or will provide
 assistance to any competitor of Gaussian, Inc.  The licensee
 of this program is prohibited from giving any competitor of
 Gaussian, Inc. access to this program.  By using this program,
 the user acknowledges that Gaussian, Inc. is engaged in the
 business of creating and licensing software in the field of
 computational chemistry and represents and warrants to the
 licensee that it is not a competitor of Gaussian, Inc. and that
 it will not use this program in any manner prohibited above.
 ---------------------------------------------------------------
  

 Cite this work as:
 Gaussian Development Version, Revision I.03+,
 M. J. Frisch, G. W. Trucks, H. B. Schlegel, G. E. Scuseria, 
 M. A. Robb, J. R. Cheeseman, G. Scalmani, V. Barone, B. Mennucci, 
 G. A. Petersson, H. Nakatsuji, M. Caricato, X. Li, H. P. Hratchian, 
 J. Bloino, B. G. Janesko, A. F. Izmaylov, A. Marenich, F. Lipparini, 
 G. Zheng, J. L. Sonnenberg, W. Liang, M. Hada, M. Ehara, K. Toyota, 
 R. Fukuda, J. Hasegawa, M. Ishida, T. Nakajima, Y. Honda, O. Kitao, 
 H. Nakai, T. Vreven, K. Throssell, J. A. Montgomery, Jr., 
 J. E. Peralta, F. Ogliaro, M. Bearpark, J. J. Heyd, E. Brothers, 
 K. N. Kudin, V. N. Staroverov, T. Keith, R. Kobayashi, J. Normand, 
 K. Raghavachari, A. Rendell, J. C. Burant, S. S. Iyengar, J. Tomasi, 
 M. Cossi, N. Rega, J. M. Millam, M. Klene, J. E. Knox, J. B. Cross, 
 V. Bakken, C. Adamo, J. Jaramillo, R. Gomperts, R. E. Stratmann, 
 O. Yazyev, A. J. Austin, R. Cammi, C. Pomelli, J. W. Ochterski, 
 R. L. Martin, K. Morokuma, V. G. Zakrzewski, G. A. Voth, 
 P. Salvador, J. J. Dannenberg, S. Dapprich, P. V. Parandekar, 
 N. J. Mayhall, A. D. Daniels, O. Farkas, J. B. Foresman, 
 J. V. Ortiz, J. Cioslowski, and D. J. Fox, 
 Gaussian, Inc., Wallingford CT, 2014.
 
 *******************************************
 Gaussian DV:  ES64L-GDVRevI.03+  2-May-2015
                  2-Oct-2015 
 *******************************************
 ----------------------------------
 #p rohf/cc-pVDZ nosymm Field=X-100
 ----------------------------------
 1/38=1,172=1/1;
 2/12=2,15=1,17=6,18=5,40=1/2;
 3/5=16,11=2,14=1,15=-100,25=1,30=1,116=101/1,2,3;
 4//1;
 5/5=2,38=5/2;
 6/7=2,8=2,9=2,10=2,28=1/1;
 99/5=1,9=1/99;
 Leave Link    1 at Fri Oct  2 16:12:02 2015, MaxMem=           0 cpu:               0.0 elap:               0.0
 (Enter /home/gauss/gdvi03p/gdv/l101.exe)
 -------------------------
 S-Propylene Oxide cc-pVDZ
 -------------------------
 Symbolic Z-matrix:
 Charge =  1 Multiplicity = 2
 C                     0.15213  -0.0358    0.4858 
 C                    -1.03947   0.61594  -0.06125 
 C                     1.50714   0.09781  -0.14846 
 O                    -0.82822  -0.78825  -0.23943 
 H                     0.15373  -0.24926   1.55214 
 H                    -1.86318   0.88192   0.59333 
 H                    -0.94981   1.21421  -0.96277 
 H                     2.07681  -0.82619  -0.03667 
 H                     2.07447   0.90179   0.32511 
 H                     1.4149    0.31585  -1.21222 
 
 ITRead=  0  0  0  0  0  0  0  0  0  0
 MicOpt= -1 -1 -1 -1 -1 -1 -1 -1 -1 -1
 NAtoms=     10 NQM=       10 NQMF=       0 NMMI=      0 NMMIF=      0
                NMic=       0 NMicF=      0.
                    Isotopes and Nuclear Properties:
 (Nuclear quadrupole moments (NQMom) in fm**2, nuclear magnetic moments (NMagM)
  in nuclear magnetons)

  Atom         1           2           3           4           5           6           7           8           9          10
 IAtWgt=          12          12          12          16           1           1           1           1           1           1
 AtmWgt=  12.0000000  12.0000000  12.0000000  15.9949146   1.0078250   1.0078250   1.0078250   1.0078250   1.0078250   1.0078250
 NucSpn=           0           0           0           0           1           1           1           1           1           1
 AtZEff=   0.0000000   0.0000000   0.0000000   0.0000000   0.0000000   0.0000000   0.0000000   0.0000000   0.0000000   0.0000000
 NQMom=    0.0000000   0.0000000   0.0000000   0.0000000   0.0000000   0.0000000   0.0000000   0.0000000   0.0000000   0.0000000
 NMagM=    0.0000000   0.0000000   0.0000000   0.0000000   2.7928460   2.7928460   2.7928460   2.7928460   2.7928460   2.7928460
 AtZNuc=   6.0000000   6.0000000   6.0000000   8.0000000   1.0000000   1.0000000   1.0000000   1.0000000   1.0000000   1.0000000
 Leave Link  101 at Fri Oct  2 16:12:02 2015, MaxMem=    33554432 cpu:               0.1 elap:               0.1
 (Enter /home/gauss/gdvi03p/gdv/l202.exe)
                          Input orientation:                          
 ---------------------------------------------------------------------
 Center     Atomic      Atomic             Coordinates (Angstroms)
 Number     Number       Type             X           Y           Z
 ---------------------------------------------------------------------
      1          6           0        0.152133   -0.035800    0.485797
      2          6           0       -1.039475    0.615938   -0.061249
      3          6           0        1.507144    0.097806   -0.148460
      4          8           0       -0.828215   -0.788248   -0.239431
      5          1           0        0.153725   -0.249258    1.552136
      6          1           0       -1.863178    0.881921    0.593333
      7          1           0       -0.949807    1.214210   -0.962771
      8          1           0        2.076806   -0.826189   -0.036671
      9          1           0        2.074465    0.901788    0.325106
     10          1           0        1.414895    0.315852   -1.212218
 ---------------------------------------------------------------------
                    Distance matrix (angstroms):
                    1          2          3          4          5
     1  C    0.000000
     2  C    1.464224   0.000000
     3  C    1.502061   2.600257   0.000000
     4  O    1.432905   1.431125   2.499454   0.000000
     5  H    1.087495   2.185246   2.200960   2.112919   0.000000
     6  H    2.217037   1.085224   3.538950   2.134036   2.503351
     7  H    2.207973   1.085685   2.818877   2.132567   3.111957
     8  H    2.145240   3.433881   1.091228   2.912336   2.560351
     9  H    2.144820   3.150810   1.092019   3.405947   2.553380
    10  H    2.145107   2.727400   1.089787   2.682703   3.090559
                    6          7          8          9         10
     6  H    0.000000
     7  H    1.834699   0.000000
     8  H    4.340279   3.765803   0.000000
     9  H    3.946818   3.301887   1.765444   0.000000
    10  H    3.784998   2.541867   1.767567   1.772489   0.000000
 Symmetry turned off by external request.
 Stoichiometry    C3H6O(1+,2)
 Framework group  C1[X(C3H6O)]
 Deg. of freedom    24
 Full point group                 C1      NOp   1
 Rotational constants (GHZ):     18.2269979      6.6669563      5.9403328
 Leave Link  202 at Fri Oct  2 16:12:02 2015, MaxMem=    33554432 cpu:               0.0 elap:               0.0
 (Enter /home/gauss/gdvi03p/gdv/l301.exe)
 Standard basis: CC-pVDZ (5D, 7F)
 Ernie: Thresh=  0.10000D-02 Tol=  0.10000D-05 Strict=F.
 Ernie:  8 primitive shells out of 118 were deleted.
 The following finite field(s) will be applied:
 An electric field of             -0.0100  0.0000  0.0000
    86 basis functions,   174 primitive gaussians,    90 cartesian basis functions
    16 alpha electrons       15 beta electrons
       nuclear repulsion energy       124.7885346707 Hartrees.
 IExCor=    0 DFT=F Ex=HF Corr=None ExCW=0 ScaHFX=  1.000000
 ScaDFX=  1.000000  1.000000  1.000000  1.000000 ScalE2=  1.000000  1.000000
 IRadAn=      0 IRanWt=     -1 IRanGd=            0 ICorTp=0 IEmpDi=  4
 NAtoms=   10 NActive=   10 NUniq=   10 SFac= 1.00D+00 NAtFMM=   60 NAOKFM=F Big=F
 Integral buffers will be    131072 words long.
 Raffenetti 2 integral format.
 Two-electron integral symmetry is turned off.
 Leave Link  301 at Fri Oct  2 16:12:02 2015, MaxMem=    33554432 cpu:               0.1 elap:               0.1
 (Enter /home/gauss/gdvi03p/gdv/l302.exe)
 NPDir=0 NMtPBC=     1 NCelOv=     1 NCel=       1 NClECP=     1 NCelD=      1
         NCelK=      1 NCelE2=     1 NClLst=     1 CellRange=     0.0.
 One-electron integrals computed using PRISM.
 One-electron integral symmetry used in STVInt
 NBasis=    86 RedAO= T EigKep=  3.18D-03  NBF=    86
 NBsUse=    86 1.00D-06 EigRej= -1.00D+00 NBFU=    86
 Leave Link  302 at Fri Oct  2 16:12:02 2015, MaxMem=    33554432 cpu:               0.1 elap:               0.1
 (Enter /home/gauss/gdvi03p/gdv/l303.exe)
 DipDrv:  MaxL=1.
 The nuclear repulsion energy is now       124.7885347085 hartrees.
 Leave Link  303 at Fri Oct  2 16:12:03 2015, MaxMem=    33554432 cpu:               0.0 elap:               0.0
 (Enter /home/gauss/gdvi03p/gdv/l401.exe)
 ExpMin= 1.22D-01 ExpMax= 1.17D+04 ExpMxC= 4.01D+02 IAcc=1 IRadAn=         1 AccDes= 0.00D+00
 Harris functional with IExCor=  205 and IRadAn=       1 diagonalized for initial guess.
 HarFok:  IExCor=  205 AccDes= 0.00D+00 IRadAn=         1 IDoV= 1 UseB2=F ITyADJ=14
 ICtDFT=  3500011 ScaDFX=  1.000000  1.000000  1.000000  1.000000
 FoFCou: FMM=F IPFlag=           0 FMFlag=      100000 FMFlg1=           0
         NFxFlg=           0 DoJE=T BraDBF=F KetDBF=T FulRan=T
         wScrn=  0.000000 ICntrl=       500 IOpCl=  0 I1Cent=   200000004 NGrid=           0
         NMat0=    1 NMatS0=      1 NMatT0=    0 NMatD0=    1 NMtDS0=    0 NMtDT0=    0
 Symmetry not used in FoFCou.
 Harris En= -191.825860180366    
 JPrj=0 DoOrth=F DoCkMO=F.
 Leave Link  401 at Fri Oct  2 16:12:03 2015, MaxMem=    33554432 cpu:               0.3 elap:               0.3
 (Enter /home/gauss/gdvi03p/gdv/l502.exe)
 Keep R1 and R2 ints in memory in canonical form, NReq=14901755.
 FoFCou: FMM=F IPFlag=           0 FMFlag=           0 FMFlg1=           0
         NFxFlg=           0 DoJE=F BraDBF=F KetDBF=F FulRan=T
         wScrn=  0.000000 ICntrl=       600 IOpCl=  0 I1Cent=           0 NGrid=           0
         NMat0=    1 NMatS0=   3741 NMatT0=    0 NMatD0=    1 NMtDS0=    0 NMtDT0=    0
 Symmetry not used in FoFCou.
 Two-electron integral symmetry not used.
 Restricted open shell SCF:
 Using DIIS extrapolation, IDIIS=  1040.
 NGot=    33554432 LenX=    19537938 LenY=    19529397
 Requested convergence on RMS density matrix=1.00D-08 within 128 cycles.
 Requested convergence on MAX density matrix=1.00D-06.
 Requested convergence on             energy=1.00D-06.
 No special actions if energy rises.

 Cycle   1  Pass 1  IDiag  1:
 E= -191.423399891027    
 DIIS: error= 3.24D-02 at cycle   1 NSaved=   1.
 NSaved= 1 IEnMin= 1 EnMin= -191.423399891027     IErMin= 1 ErrMin= 3.24D-02
 ErrMax= 3.24D-02  0.00D+00 EMaxC= 1.00D-01 BMatC= 2.05D-01 BMatP= 2.05D-01
 IDIUse=3 WtCom= 6.76D-01 WtEn= 3.24D-01
 Coeff-Com:  0.100D+01
 Coeff-En:   0.100D+01
 Coeff:      0.100D+01
 Gap=     0.450 Goal=   None    Shift=    0.000
 GapD=    0.450 DampG=2.000 DampE=0.500 DampFc=1.0000 IDamp=-1.
 RMSDP=6.19D-03 MaxDP=1.02D-01              OVMax= 1.50D-01

 Cycle   2  Pass 1  IDiag  1:
 E= -191.526579071712     Delta-E=       -0.103179180685 Rises=F Damp=F
 DIIS: error= 2.47D-02 at cycle   2 NSaved=   2.
 NSaved= 2 IEnMin= 2 EnMin= -191.526579071712     IErMin= 2 ErrMin= 2.47D-02
 ErrMax= 2.47D-02  0.00D+00 EMaxC= 1.00D-01 BMatC= 5.55D-02 BMatP= 2.05D-01
 IDIUse=3 WtCom= 7.53D-01 WtEn= 2.47D-01
 Coeff-Com:  0.306D+00 0.694D+00
 Coeff-En:   0.441D-01 0.956D+00
 Coeff:      0.241D+00 0.759D+00
 Gap=     0.322 Goal=   None    Shift=    0.000
 RMSDP=3.13D-03 MaxDP=7.61D-02 DE=-1.03D-01 OVMax= 1.10D-01

 Cycle   3  Pass 1  IDiag  1:
 E= -191.574501567713     Delta-E=       -0.047922496001 Rises=F Damp=F
 DIIS: error= 1.53D-02 at cycle   3 NSaved=   3.
 NSaved= 3 IEnMin= 3 EnMin= -191.574501567713     IErMin= 3 ErrMin= 1.53D-02
 ErrMax= 1.53D-02  0.00D+00 EMaxC= 1.00D-01 BMatC= 1.67D-02 BMatP= 5.55D-02
 IDIUse=3 WtCom= 8.47D-01 WtEn= 1.53D-01
 Coeff-Com:  0.260D-02 0.346D+00 0.651D+00
 Coeff-En:   0.000D+00 0.308D-02 0.997D+00
 Coeff:      0.220D-02 0.294D+00 0.704D+00
 Gap=     0.357 Goal=   None    Shift=    0.000
 RMSDP=1.49D-03 MaxDP=3.93D-02 DE=-4.79D-02 OVMax= 5.93D-02

 Cycle   4  Pass 1  IDiag  1:
 E= -191.587555739135     Delta-E=       -0.013054171422 Rises=F Damp=F
 DIIS: error= 1.07D-03 at cycle   4 NSaved=   4.
 NSaved= 4 IEnMin= 4 EnMin= -191.587555739135     IErMin= 4 ErrMin= 1.07D-03
 ErrMax= 1.07D-03  0.00D+00 EMaxC= 1.00D-01 BMatC= 2.72D-04 BMatP= 1.67D-02
 IDIUse=3 WtCom= 9.89D-01 WtEn= 1.07D-02
 Coeff-Com: -0.149D-01 0.436D-01 0.121D+00 0.850D+00
 Coeff-En:   0.000D+00 0.000D+00 0.000D+00 0.100D+01
 Coeff:     -0.147D-01 0.431D-01 0.120D+00 0.852D+00
 Gap=     0.350 Goal=   None    Shift=    0.000
 RMSDP=5.91D-04 MaxDP=1.41D-02 DE=-1.31D-02 OVMax= 1.69D-02

 Cycle   5  Pass 1  IDiag  1:
 E= -191.589036669414     Delta-E=       -0.001480930279 Rises=F Damp=F
 DIIS: error= 1.23D-03 at cycle   5 NSaved=   5.
 NSaved= 5 IEnMin= 5 EnMin= -191.589036669414     IErMin= 4 ErrMin= 1.07D-03
 ErrMax= 1.23D-03  0.00D+00 EMaxC= 1.00D-01 BMatC= 1.80D-04 BMatP= 2.72D-04
 IDIUse=3 WtCom= 9.88D-01 WtEn= 1.23D-02
 Coeff-Com:  0.610D-04-0.105D-01-0.102D+00 0.116D+00 0.996D+00
 Coeff-En:   0.000D+00 0.000D+00 0.000D+00 0.000D+00 0.100D+01
 Coeff:      0.603D-04-0.103D-01-0.100D+00 0.115D+00 0.996D+00
 Gap=     0.352 Goal=   None    Shift=    0.000
 RMSDP=3.72D-04 MaxDP=9.51D-03 DE=-1.48D-03 OVMax= 1.12D-02

 Cycle   6  Pass 1  IDiag  1:
 E= -191.589549795647     Delta-E=       -0.000513126233 Rises=F Damp=F
 DIIS: error= 4.32D-04 at cycle   6 NSaved=   6.
 NSaved= 6 IEnMin= 6 EnMin= -191.589549795647     IErMin= 6 ErrMin= 4.32D-04
 ErrMax= 4.32D-04  0.00D+00 EMaxC= 1.00D-01 BMatC= 2.61D-05 BMatP= 1.80D-04
 IDIUse=3 WtCom= 9.96D-01 WtEn= 4.32D-03
 Coeff-Com:  0.460D-02-0.985D-02-0.722D-01-0.175D+00 0.291D+00 0.961D+00
 Coeff-En:   0.000D+00 0.000D+00 0.000D+00 0.000D+00 0.000D+00 0.100D+01
 Coeff:      0.458D-02-0.981D-02-0.719D-01-0.174D+00 0.290D+00 0.962D+00
 Gap=     0.354 Goal=   None    Shift=    0.000
 RMSDP=1.81D-04 MaxDP=4.09D-03 DE=-5.13D-04 OVMax= 4.53D-03

 Cycle   7  Pass 1  IDiag  1:
 E= -191.589659453453     Delta-E=       -0.000109657806 Rises=F Damp=F
 DIIS: error= 1.81D-04 at cycle   7 NSaved=   7.
 NSaved= 7 IEnMin= 7 EnMin= -191.589659453453     IErMin= 7 ErrMin= 1.81D-04
 ErrMax= 1.81D-04  0.00D+00 EMaxC= 1.00D-01 BMatC= 2.91D-06 BMatP= 2.61D-05
 IDIUse=3 WtCom= 9.98D-01 WtEn= 1.81D-03
 Coeff-Com: -0.691D-03 0.349D-02 0.284D-01 0.126D-01-0.179D+00 0.491D-01
 Coeff-Com:  0.109D+01
 Coeff-En:   0.000D+00 0.000D+00 0.000D+00 0.000D+00 0.000D+00 0.000D+00
 Coeff-En:   0.100D+01
 Coeff:     -0.690D-03 0.349D-02 0.284D-01 0.125D-01-0.179D+00 0.490D-01
 Coeff:      0.109D+01
 Gap=     0.354 Goal=   None    Shift=    0.000
 RMSDP=6.57D-05 MaxDP=1.34D-03 DE=-1.10D-04 OVMax= 1.64D-03

 Cycle   8  Pass 1  IDiag  1:
 E= -191.589685284186     Delta-E=       -0.000025830732 Rises=F Damp=F
 DIIS: error= 7.60D-05 at cycle   8 NSaved=   8.
 NSaved= 8 IEnMin= 8 EnMin= -191.589685284186     IErMin= 8 ErrMin= 7.60D-05
 ErrMax= 7.60D-05  0.00D+00 EMaxC= 1.00D-01 BMatC= 7.28D-07 BMatP= 2.91D-06
 IDIUse=1 WtCom= 1.00D+00 WtEn= 0.00D+00
 Coeff-Com: -0.714D-03 0.203D-02 0.147D-01 0.247D-01-0.686D-01-0.532D-01
 Coeff-Com:  0.315D+00 0.767D+00
 Coeff:     -0.714D-03 0.203D-02 0.147D-01 0.247D-01-0.686D-01-0.532D-01
 Coeff:      0.315D+00 0.767D+00
 Gap=     0.353 Goal=   None    Shift=    0.000
 RMSDP=3.38D-05 MaxDP=7.61D-04 DE=-2.58D-05 OVMax= 7.30D-04

 Cycle   9  Pass 1  IDiag  1:
 E= -191.589696150510     Delta-E=       -0.000010866324 Rises=F Damp=F
 DIIS: error= 6.18D-05 at cycle   9 NSaved=   9.
 NSaved= 9 IEnMin= 9 EnMin= -191.589696150510     IErMin= 9 ErrMin= 6.18D-05
 ErrMax= 6.18D-05  0.00D+00 EMaxC= 1.00D-01 BMatC= 3.83D-07 BMatP= 7.28D-07
 IDIUse=1 WtCom= 1.00D+00 WtEn= 0.00D+00
 Coeff-Com: -0.695D-04 0.101D-03-0.215D-02 0.602D-02 0.120D-01-0.326D-01
 Coeff-Com: -0.148D+00 0.307D-01 0.113D+01
 Coeff:     -0.695D-04 0.101D-03-0.215D-02 0.602D-02 0.120D-01-0.326D-01
 Coeff:     -0.148D+00 0.307D-01 0.113D+01
 Gap=     0.353 Goal=   None    Shift=    0.000
 RMSDP=3.85D-05 MaxDP=1.15D-03 DE=-1.09D-05 OVMax= 4.49D-04

 Cycle  10  Pass 1  IDiag  1:
 E= -191.589709377801     Delta-E=       -0.000013227291 Rises=F Damp=F
 DIIS: error= 5.09D-05 at cycle  10 NSaved=  10.
 NSaved=10 IEnMin=10 EnMin= -191.589709377801     IErMin=10 ErrMin= 5.09D-05
 ErrMax= 5.09D-05  0.00D+00 EMaxC= 1.00D-01 BMatC= 2.44D-07 BMatP= 3.83D-07
 IDIUse=1 WtCom= 1.00D+00 WtEn= 0.00D+00
 Coeff-Com:  0.145D-03-0.331D-05-0.275D-02-0.400D-02-0.310D-03-0.117D-01
 Coeff-Com: -0.494D-01-0.661D+00-0.320D+00 0.205D+01
 Coeff:      0.145D-03-0.331D-05-0.275D-02-0.400D-02-0.310D-03-0.117D-01
 Coeff:     -0.494D-01-0.661D+00-0.320D+00 0.205D+01
 Gap=     0.354 Goal=   None    Shift=    0.000
 RMSDP=7.56D-05 MaxDP=2.32D-03 DE=-1.32D-05 OVMax= 6.08D-04

 Cycle  11  Pass 1  IDiag  1:
 E= -191.589727278017     Delta-E=       -0.000017900216 Rises=F Damp=F
 DIIS: error= 4.05D-05 at cycle  11 NSaved=  11.
 NSaved=11 IEnMin=11 EnMin= -191.589727278017     IErMin=11 ErrMin= 4.05D-05
 ErrMax= 4.05D-05  0.00D+00 EMaxC= 1.00D-01 BMatC= 8.09D-08 BMatP= 2.44D-07
 IDIUse=1 WtCom= 1.00D+00 WtEn= 0.00D+00
 Coeff-Com: -0.735D-04 0.358D-03 0.310D-02 0.205D-02-0.166D-01 0.219D-02
 Coeff-Com:  0.114D+00-0.218D+00-0.707D+00 0.576D+00 0.124D+01
 Coeff:     -0.735D-04 0.358D-03 0.310D-02 0.205D-02-0.166D-01 0.219D-02
 Coeff:      0.114D+00-0.218D+00-0.707D+00 0.576D+00 0.124D+01
 Gap=     0.354 Goal=   None    Shift=    0.000
 RMSDP=5.15D-05 MaxDP=1.58D-03 DE=-1.79D-05 OVMax= 3.69D-04

 Cycle  12  Pass 1  IDiag  1:
 E= -191.589732698409     Delta-E=       -0.000005420393 Rises=F Damp=F
 DIIS: error= 2.03D-05 at cycle  12 NSaved=  12.
 NSaved=12 IEnMin=12 EnMin= -191.589732698409     IErMin=12 ErrMin= 2.03D-05
 ErrMax= 2.03D-05  0.00D+00 EMaxC= 1.00D-01 BMatC= 1.84D-08 BMatP= 8.09D-08
 IDIUse=1 WtCom= 1.00D+00 WtEn= 0.00D+00
 Coeff-Com: -0.504D-04 0.216D-04 0.166D-02 0.117D-02-0.512D-02 0.111D-01
 Coeff-Com:  0.578D-01 0.582D-01-0.128D+00-0.278D+00 0.196D+00 0.109D+01
 Coeff:     -0.504D-04 0.216D-04 0.166D-02 0.117D-02-0.512D-02 0.111D-01
 Coeff:      0.578D-01 0.582D-01-0.128D+00-0.278D+00 0.196D+00 0.109D+01
 Gap=     0.354 Goal=   None    Shift=    0.000
 RMSDP=1.96D-05 MaxDP=6.17D-04 DE=-5.42D-06 OVMax= 1.53D-04

 Cycle  13  Pass 1  IDiag  1:
 E= -191.589733323808     Delta-E=       -0.000000625399 Rises=F Damp=F
 DIIS: error= 5.74D-06 at cycle  13 NSaved=  13.
 NSaved=13 IEnMin=13 EnMin= -191.589733323808     IErMin=13 ErrMin= 5.74D-06
 ErrMax= 5.74D-06  0.00D+00 EMaxC= 1.00D-01 BMatC= 2.62D-09 BMatP= 1.84D-08
 IDIUse=1 WtCom= 1.00D+00 WtEn= 0.00D+00
 Coeff-Com:  0.778D-05-0.905D-04-0.230D-03-0.656D-03 0.719D-03 0.396D-02
 Coeff-Com: -0.563D-02 0.138D-01 0.980D-01-0.558D-01-0.260D+00 0.172D+00
 Coeff-Com:  0.103D+01
 Coeff:      0.778D-05-0.905D-04-0.230D-03-0.656D-03 0.719D-03 0.396D-02
 Coeff:     -0.563D-02 0.138D-01 0.980D-01-0.558D-01-0.260D+00 0.172D+00
 Coeff:      0.103D+01
 Gap=     0.354 Goal=   None    Shift=    0.000
 RMSDP=3.47D-06 MaxDP=1.19D-04 DE=-6.25D-07 OVMax= 5.16D-05

 Cycle  14  Pass 1  IDiag  1:
 E= -191.589733357911     Delta-E=       -0.000000034103 Rises=F Damp=F
 DIIS: error= 1.80D-06 at cycle  14 NSaved=  14.
 NSaved=14 IEnMin=14 EnMin= -191.589733357911     IErMin=14 ErrMin= 1.80D-06
 ErrMax= 1.80D-06  0.00D+00 EMaxC= 1.00D-01 BMatC= 2.91D-10 BMatP= 2.62D-09
 IDIUse=1 WtCom= 1.00D+00 WtEn= 0.00D+00
 Coeff-Com:  0.145D-06 0.101D-04-0.224D-05-0.102D-03-0.566D-03-0.835D-03
 Coeff-Com: -0.200D-02-0.112D-01 0.708D-02 0.408D-01-0.404D-01-0.954D-01
 Coeff-Com:  0.138D+00 0.964D+00
 Coeff:      0.145D-06 0.101D-04-0.224D-05-0.102D-03-0.566D-03-0.835D-03
 Coeff:     -0.200D-02-0.112D-01 0.708D-02 0.408D-01-0.404D-01-0.954D-01
 Coeff:      0.138D+00 0.964D+00
 Gap=     0.354 Goal=   None    Shift=    0.000
 RMSDP=1.13D-06 MaxDP=4.27D-05 DE=-3.41D-08 OVMax= 1.68D-05

 Cycle  15  Pass 1  IDiag  1:
 E= -191.589733365090     Delta-E=       -0.000000007179 Rises=F Damp=F
 DIIS: error= 1.13D-06 at cycle  15 NSaved=  15.
 NSaved=15 IEnMin=15 EnMin= -191.589733365090     IErMin=15 ErrMin= 1.13D-06
 ErrMax= 1.13D-06  0.00D+00 EMaxC= 1.00D-01 BMatC= 8.77D-11 BMatP= 2.91D-10
 IDIUse=1 WtCom= 1.00D+00 WtEn= 0.00D+00
 Coeff-Com: -0.172D-05 0.201D-04 0.377D-04 0.834D-04-0.173D-03-0.734D-03
 Coeff-Com:  0.405D-03-0.422D-02-0.138D-01 0.158D-01 0.313D-01-0.479D-01
 Coeff-Com: -0.146D+00 0.856D-01 0.108D+01
 Coeff:     -0.172D-05 0.201D-04 0.377D-04 0.834D-04-0.173D-03-0.734D-03
 Coeff:      0.405D-03-0.422D-02-0.138D-01 0.158D-01 0.313D-01-0.479D-01
 Coeff:     -0.146D+00 0.856D-01 0.108D+01
 Gap=     0.354 Goal=   None    Shift=    0.000
 RMSDP=7.96D-07 MaxDP=3.27D-05 DE=-7.18D-09 OVMax= 9.35D-06

 Cycle  16  Pass 1  IDiag  1:
 E= -191.589733369218     Delta-E=       -0.000000004128 Rises=F Damp=F
 DIIS: error= 8.22D-07 at cycle  16 NSaved=  16.
 NSaved=16 IEnMin=16 EnMin= -191.589733369218     IErMin=16 ErrMin= 8.22D-07
 ErrMax= 8.22D-07  0.00D+00 EMaxC= 1.00D-01 BMatC= 3.64D-11 BMatP= 8.77D-11
 IDIUse=1 WtCom= 1.00D+00 WtEn= 0.00D+00
 Coeff-Com:  0.160D-06-0.172D-05-0.268D-04 0.119D-04 0.367D-03 0.305D-03
 Coeff-Com: -0.234D-03 0.450D-02 0.104D-02-0.150D-01 0.972D-02 0.335D-01
 Coeff-Com: -0.341D-01-0.305D+00-0.486D-01 0.135D+01
 Coeff:      0.160D-06-0.172D-05-0.268D-04 0.119D-04 0.367D-03 0.305D-03
 Coeff:     -0.234D-03 0.450D-02 0.104D-02-0.150D-01 0.972D-02 0.335D-01
 Coeff:     -0.341D-01-0.305D+00-0.486D-01 0.135D+01
 Gap=     0.354 Goal=   None    Shift=    0.000
 RMSDP=5.96D-07 MaxDP=2.30D-05 DE=-4.13D-09 OVMax= 8.99D-06

 Cycle  17  Pass 1  IDiag  1:
 E= -191.589733371802     Delta-E=       -0.000000002584 Rises=F Damp=F
 DIIS: error= 5.10D-07 at cycle  17 NSaved=  17.
 NSaved=17 IEnMin=17 EnMin= -191.589733371802     IErMin=17 ErrMin= 5.10D-07
 ErrMax= 5.10D-07  0.00D+00 EMaxC= 1.00D-01 BMatC= 1.67D-11 BMatP= 3.64D-11
 IDIUse=1 WtCom= 1.00D+00 WtEn= 0.00D+00
 Coeff-Com:  0.415D-06-0.646D-05-0.181D-04-0.256D-04 0.131D-03 0.288D-03
 Coeff-Com: -0.414D-03 0.388D-02 0.685D-02-0.132D-01-0.113D-01 0.332D-01
 Coeff-Com:  0.658D-01-0.523D-01-0.487D+00 0.552D-02 0.145D+01
 Coeff:      0.415D-06-0.646D-05-0.181D-04-0.256D-04 0.131D-03 0.288D-03
 Coeff:     -0.414D-03 0.388D-02 0.685D-02-0.132D-01-0.113D-01 0.332D-01
 Coeff:      0.658D-01-0.523D-01-0.487D+00 0.552D-02 0.145D+01
 Gap=     0.354 Goal=   None    Shift=    0.000
 RMSDP=5.21D-07 MaxDP=2.01D-05 DE=-2.58D-09 OVMax= 6.95D-06

 Cycle  18  Pass 1  IDiag  1:
 E= -191.589733373032     Delta-E=       -0.000000001230 Rises=F Damp=F
 DIIS: error= 2.25D-07 at cycle  18 NSaved=  18.
 NSaved=18 IEnMin=18 EnMin= -191.589733373032     IErMin=18 ErrMin= 2.25D-07
 ErrMax= 2.25D-07  0.00D+00 EMaxC= 1.00D-01 BMatC= 3.72D-12 BMatP= 1.67D-11
 IDIUse=1 WtCom= 1.00D+00 WtEn= 0.00D+00
 Coeff-Com: -0.247D-06 0.133D-06 0.849D-05 0.331D-05-0.814D-04-0.943D-04
 Coeff-Com: -0.462D-04 0.355D-04 0.170D-03-0.380D-03-0.169D-02-0.301D-02
 Coeff-Com:  0.744D-02 0.726D-01-0.460D-02-0.452D+00 0.988D-01 0.128D+01
 Coeff:     -0.247D-06 0.133D-06 0.849D-05 0.331D-05-0.814D-04-0.943D-04
 Coeff:     -0.462D-04 0.355D-04 0.170D-03-0.380D-03-0.169D-02-0.301D-02
 Coeff:      0.744D-02 0.726D-01-0.460D-02-0.452D+00 0.988D-01 0.128D+01
 Gap=     0.354 Goal=   None    Shift=    0.000
 RMSDP=3.52D-07 MaxDP=1.46D-05 DE=-1.23D-09 OVMax= 4.48D-06

 Cycle  19  Pass 1  IDiag  1:
 E= -191.589733373317     Delta-E=       -0.000000000285 Rises=F Damp=F
 DIIS: error= 5.45D-08 at cycle  19 NSaved=  19.
 NSaved=19 IEnMin=19 EnMin= -191.589733373317     IErMin=19 ErrMin= 5.45D-08
 ErrMax= 5.45D-08  0.00D+00 EMaxC= 1.00D-01 BMatC= 5.55D-13 BMatP= 3.72D-12
 IDIUse=1 WtCom= 1.00D+00 WtEn= 0.00D+00
 Coeff-Com: -0.288D-07 0.501D-06 0.170D-05 0.134D-05-0.836D-05-0.535D-04
 Coeff-Com: -0.390D-04-0.576D-03-0.105D-02 0.181D-02 0.232D-02-0.669D-02
 Coeff-Com: -0.149D-01 0.208D-01 0.111D+00-0.920D-01-0.285D+00 0.309D+00
 Coeff-Com:  0.956D+00
 Coeff:     -0.288D-07 0.501D-06 0.170D-05 0.134D-05-0.836D-05-0.535D-04
 Coeff:     -0.390D-04-0.576D-03-0.105D-02 0.181D-02 0.232D-02-0.669D-02
 Coeff:     -0.149D-01 0.208D-01 0.111D+00-0.920D-01-0.285D+00 0.309D+00
 Coeff:      0.956D+00
 Gap=     0.354 Goal=   None    Shift=    0.000
 RMSDP=7.93D-08 MaxDP=3.11D-06 DE=-2.85D-10 OVMax= 1.28D-06

 Cycle  20  Pass 1  IDiag  1:
 E= -191.589733373329     Delta-E=       -0.000000000012 Rises=F Damp=F
 DIIS: error= 2.98D-08 at cycle  20 NSaved=  20.
 NSaved=20 IEnMin=20 EnMin= -191.589733373329     IErMin=20 ErrMin= 2.98D-08
 ErrMax= 2.98D-08  0.00D+00 EMaxC= 1.00D-01 BMatC= 8.46D-14 BMatP= 5.55D-13
 IDIUse=1 WtCom= 1.00D+00 WtEn= 0.00D+00
 Coeff-Com:  0.102D-06-0.147D-06-0.173D-05-0.325D-05 0.158D-04 0.730D-05
 Coeff-Com: -0.354D-04-0.216D-03-0.265D-03 0.713D-03 0.921D-03-0.179D-02
 Coeff-Com: -0.546D-02-0.154D-03 0.381D-01 0.201D-01-0.990D-01-0.559D-01
 Coeff-Com:  0.240D+00 0.863D+00
 Coeff:      0.102D-06-0.147D-06-0.173D-05-0.325D-05 0.158D-04 0.730D-05
 Coeff:     -0.354D-04-0.216D-03-0.265D-03 0.713D-03 0.921D-03-0.179D-02
 Coeff:     -0.546D-02-0.154D-03 0.381D-01 0.201D-01-0.990D-01-0.559D-01
 Coeff:      0.240D+00 0.863D+00
 Gap=     0.354 Goal=   None    Shift=    0.000
 RMSDP=2.33D-08 MaxDP=6.91D-07 DE=-1.23D-11 OVMax= 2.68D-07

 Cycle  21  Pass 1  IDiag  1:
 E= -191.589733373330     Delta-E=       -0.000000000001 Rises=F Damp=F
 DIIS: error= 5.54D-09 at cycle  21 NSaved=  20.
 NSaved=20 IEnMin=20 EnMin= -191.589733373330     IErMin=20 ErrMin= 5.54D-09
 ErrMax= 5.54D-09  0.00D+00 EMaxC= 1.00D-01 BMatC= 7.49D-15 BMatP= 8.46D-14
 IDIUse=1 WtCom= 1.00D+00 WtEn= 0.00D+00
 Coeff-Com: -0.986D-07-0.131D-06-0.802D-06 0.343D-05 0.927D-05 0.679D-05
 Coeff-Com:  0.187D-04 0.153D-04-0.443D-04 0.376D-04 0.348D-03 0.227D-03
 Coeff-Com: -0.222D-02-0.319D-02 0.130D-01 0.111D-01-0.429D-01-0.684D-01
 Coeff-Com:  0.146D+00 0.946D+00
 Coeff:     -0.986D-07-0.131D-06-0.802D-06 0.343D-05 0.927D-05 0.679D-05
 Coeff:      0.187D-04 0.153D-04-0.443D-04 0.376D-04 0.348D-03 0.227D-03
 Coeff:     -0.222D-02-0.319D-02 0.130D-01 0.111D-01-0.429D-01-0.684D-01
 Coeff:      0.146D+00 0.946D+00
 Gap=     0.354 Goal=   None    Shift=    0.000
 RMSDP=6.51D-09 MaxDP=1.68D-07 DE=-7.96D-13 OVMax= 9.37D-08

 SCF Done:  E(ROHF) =  -191.589733373     A.U. after   21 cycles
            NFock= 21  Conv=0.65D-08     -V/T= 1.9999
 <Sx>= 0.0000 <Sy>= 0.0000 <Sz>= 0.5000 <S**2>= 0.7500 S= 0.5000
 <L.S>= 0.000000000000E+00
 KE= 1.916177698360D+02 PE=-6.901057144607D+02 EE= 1.821096765429D+02
 Annihilation of the first spin contaminant:
 S**2 before annihilation     0.7500,   after     0.7500
 Leave Link  502 at Fri Oct  2 16:12:05 2015, MaxMem=    33554432 cpu:               1.3 elap:               1.8
 (Enter /home/gauss/gdvi03p/gdv/l601.exe)
 Copying SCF densities to generalized density rwf, IOpCl= 0 IROHF=1.

 **********************************************************************

            Population analysis using the SCF density.

 **********************************************************************

 Alpha  occ. eigenvalues --  -20.99396 -11.56992 -11.56242 -11.42298  -1.75945
 Alpha  occ. eigenvalues --   -1.25957  -1.19366  -1.08602  -0.97133  -0.92291
 Alpha  occ. eigenvalues --   -0.87806  -0.79313  -0.76367  -0.73067  -0.69894
 Alpha  occ. eigenvalues --   -0.37802
 Alpha virt. eigenvalues --   -0.02445  -0.00389   0.01258   0.03012   0.04072
 Alpha virt. eigenvalues --    0.08093   0.11189   0.12685   0.18121   0.24574
 Alpha virt. eigenvalues --    0.34151   0.37937   0.43802   0.46576   0.49018
 Alpha virt. eigenvalues --    0.50345   0.54290   0.57915   0.60362   0.63737
 Alpha virt. eigenvalues --    0.65384   0.69734   0.70264   0.73606   0.75211
 Alpha virt. eigenvalues --    0.78234   0.83568   0.86675   0.96480   1.05578
 Alpha virt. eigenvalues --    1.08943   1.13039   1.23659   1.26464   1.29877
 Alpha virt. eigenvalues --    1.41681   1.47100   1.50226   1.50997   1.52620
 Alpha virt. eigenvalues --    1.57749   1.65386   1.67412   1.69557   1.70850
 Alpha virt. eigenvalues --    1.74278   1.78567   1.80556   1.81977   1.82853
 Alpha virt. eigenvalues --    1.92313   1.95463   2.01833   2.12763   2.16819
 Alpha virt. eigenvalues --    2.27241   2.30106   2.34846   2.38169   2.57666
 Alpha virt. eigenvalues --    2.58766   2.60628   2.67065   2.71477   2.80501
 Alpha virt. eigenvalues --    2.81875   2.99380   3.04517   3.20293   3.29333
          Condensed to atoms (all electrons):
               1          2          3          4          5          6
     1  C    4.949185   0.342566   0.369486   0.094868   0.413451  -0.019838
     2  C    0.342566   4.625139  -0.058226   0.145909  -0.027019   0.407884
     3  C    0.369486  -0.058226   4.460322  -0.011404  -0.006214   0.002009
     4  O    0.094868   0.145909  -0.011404   7.739455  -0.009883  -0.005564
     5  H    0.413451  -0.027019  -0.006214  -0.009883   0.472674  -0.002879
     6  H   -0.019838   0.407884   0.002009  -0.005564  -0.002879   0.485669
     7  H   -0.017287   0.409059  -0.000226  -0.005418   0.002024  -0.013236
     8  H   -0.022250   0.004828   0.408837  -0.000801  -0.003491  -0.000119
     9  H   -0.022010  -0.001102   0.408641   0.001662  -0.003007  -0.000006
    10  H   -0.030390  -0.004505   0.414948  -0.001787   0.004388   0.000176
               7          8          9         10
     1  C   -0.017287  -0.022250  -0.022010  -0.030390
     2  C    0.409059   0.004828  -0.001102  -0.004505
     3  C   -0.000226   0.408837   0.408641   0.414948
     4  O   -0.005418  -0.000801   0.001662  -0.001787
     5  H    0.002024  -0.003491  -0.003007   0.004388
     6  H   -0.013236  -0.000119  -0.000006   0.000176
     7  H    0.456967   0.000043   0.000189   0.002369
     8  H    0.000043   0.497681  -0.005531  -0.016021
     9  H    0.000189  -0.005531   0.485848  -0.012510
    10  H    0.002369  -0.016021  -0.012510   0.561831
          Atomic-Atomic Spin Densities.
               1          2          3          4          5          6
     1  C    0.027725   0.004186   0.005709  -0.028343   0.005648   0.000618
     2  C    0.004186   0.012384   0.000215  -0.014034   0.000723   0.005305
     3  C    0.005709   0.000215   0.008685  -0.003228  -0.000530  -0.000069
     4  O   -0.028343  -0.014034  -0.003228   0.981704  -0.003322  -0.004028
     5  H    0.005648   0.000723  -0.000530  -0.003322   0.008162   0.000336
     6  H    0.000618   0.005305  -0.000069  -0.004028   0.000336   0.009231
     7  H    0.001750   0.004797   0.000147  -0.003886  -0.000094  -0.001297
     8  H   -0.000171  -0.000007   0.000043   0.000120   0.000035   0.000002
     9  H   -0.001179  -0.000062   0.001050   0.000154   0.000137   0.000015
    10  H   -0.001272  -0.000217   0.000078   0.001282   0.000059   0.000025
               7          8          9         10
     1  C    0.001750  -0.000171  -0.001179  -0.001272
     2  C    0.004797  -0.000007  -0.000062  -0.000217
     3  C    0.000147   0.000043   0.001050   0.000078
     4  O   -0.003886   0.000120   0.000154   0.001282
     5  H   -0.000094   0.000035   0.000137   0.000059
     6  H   -0.001297   0.000002   0.000015   0.000025
     7  H    0.008275  -0.000006  -0.000048  -0.000186
     8  H   -0.000006   0.000027   0.000063   0.000043
     9  H   -0.000048   0.000063   0.001700   0.000254
    10  H   -0.000186   0.000043   0.000254   0.000475
 Mulliken charges and spin densities:
               1          2
     1  C   -0.057782   0.014670
     2  C    0.155466   0.013291
     3  C    0.011827   0.012100
     4  O    0.052962   0.926419
     5  H    0.159956   0.011155
     6  H    0.145903   0.010138
     7  H    0.165515   0.009453
     8  H    0.136824   0.000149
     9  H    0.147826   0.002084
    10  H    0.081502   0.000540
 Sum of Mulliken charges =   1.00000   1.00000
 Mulliken charges and spin densities with hydrogens summed into heavy atoms:
               1          2
     1  C    0.102174   0.025826
     2  C    0.466885   0.032882
     3  C    0.377979   0.014874
     4  O    0.052962   0.926419
 Electronic spatial extent (au):  <R**2>=            252.0565
 Charge=              1.0000 electrons
 Dipole moment (field-independent basis, Debye):
    X=             -0.0554    Y=              1.2543    Z=              0.7909  Tot=              1.4839
 Quadrupole moment (field-independent basis, Debye-Ang):
   XX=            -14.4855   YY=            -20.6164   ZZ=            -19.2378
   XY=             -1.7644   XZ=             -0.2587   YZ=             -1.0233
 Traceless Quadrupole moment (field-independent basis, Debye-Ang):
   XX=              3.6277   YY=             -2.5031   ZZ=             -1.1246
   XY=             -1.7644   XZ=             -0.2587   YZ=             -1.0233
 Octapole moment (field-independent basis, Debye-Ang**2):
  XXX=              1.6941  YYY=             -0.1881  ZZZ=              1.0688  XYY=             -1.3986
  XXY=              2.8608  XXZ=              1.5464  XZZ=             -1.2696  YZZ=              0.1720
  YYZ=             -0.4370  XYZ=              0.6289
 Hexadecapole moment (field-independent basis, Debye-Ang**3):
 XXXX=           -164.6302 YYYY=            -59.8603 ZZZZ=            -39.1211 XXXY=             -1.4543
 XXXZ=             -2.7683 YYYX=             -1.3807 YYYZ=             -1.0693 ZZZX=              0.8438
 ZZZY=             -2.2269 XXYY=            -35.1013 XXZZ=            -38.0413 YYZZ=            -16.7177
 XXYZ=              1.9110 YYXZ=              1.1101 ZZXY=             -0.1708
 N-N= 1.247885347085D+02 E-N=-6.901057143199D+02  KE= 1.916177698360D+02
                          Isotropic Fermi Contact Couplings
        Atom                 a.u.       MegaHertz       Gauss      10(-4) cm-1
     1  C(13)              0.00035       0.39802       0.14202       0.13277
     2  C(13)              0.00006       0.07043       0.02513       0.02349
     3  C(13)              0.00654       7.35228       2.62348       2.45246
     4  O(17)              0.00015      -0.09318      -0.03325      -0.03108
     5  H(1)               0.00671      30.00718      10.70731      10.00932
     6  H(1)               0.00589      26.34889       9.40194       8.78904
     7  H(1)               0.00558      24.96315       8.90747       8.32681
     8  H(1)               0.00000       0.01170       0.00417       0.00390
     9  H(1)               0.00096       4.29129       1.53124       1.43142
    10  H(1)               0.00004       0.18920       0.06751       0.06311
 --------------------------------------------------------
       Center         ----  Spin Dipole Couplings  ----
                      3XX-RR        3YY-RR        3ZZ-RR
 --------------------------------------------------------
     1   Atom        0.012486     -0.023056      0.010570
     2   Atom       -0.034995      0.056148     -0.021154
     3   Atom        0.033405     -0.015382     -0.018023
     4   Atom       -0.430074     -1.723685      2.153759
     5   Atom       -0.005174     -0.011745      0.016919
     6   Atom       -0.001143      0.009709     -0.008565
     7   Atom       -0.014031      0.019904     -0.005873
     8   Atom        0.011339     -0.004958     -0.006381
     9   Atom        0.004260     -0.000798     -0.003462
    10   Atom        0.008347     -0.005067     -0.003281
 --------------------------------------------------------
                        XY            XZ            YZ
 --------------------------------------------------------
     1   Atom        0.043141      0.015304      0.019728
     2   Atom       -0.012894     -0.019409      0.006619
     3   Atom        0.015907     -0.006508     -0.001158
     4   Atom        0.549863     -2.470883     -0.907712
     5   Atom        0.004684      0.016259      0.005391
     6   Atom       -0.015347     -0.008621      0.010743
     7   Atom       -0.003939      0.001857     -0.013548
     8   Atom       -0.001834      0.001220     -0.000072
     9   Atom        0.005431      0.001892      0.001994
    10   Atom        0.008010     -0.006932     -0.003397
 --------------------------------------------------------


 ---------------------------------------------------------------------------------
              Anisotropic Spin Dipole Couplings in Principal Axis System
 ---------------------------------------------------------------------------------

       Atom             a.u.   MegaHertz   Gauss  10(-4) cm-1        Axes

              Baa    -0.0530    -7.115    -2.539    -2.373 -0.5227  0.8417 -0.1353
     1 C(13)  Bbb    -0.0013    -0.180    -0.064    -0.060 -0.4744 -0.1553  0.8665
              Bcc     0.0544     7.295     2.603     2.433  0.7083  0.5171  0.4805
 
              Baa    -0.0491    -6.592    -2.352    -2.199  0.8271  0.0662  0.5582
     2 C(13)  Bbb    -0.0099    -1.331    -0.475    -0.444 -0.5391 -0.1875  0.8211
              Bcc     0.0590     7.923     2.827     2.643 -0.1590  0.9800  0.1194
 
              Baa    -0.0204    -2.743    -0.979    -0.915 -0.3037  0.8625 -0.4047
     3 C(13)  Bbb    -0.0185    -2.476    -0.883    -0.826 -0.0151  0.4204  0.9072
              Bcc     0.0389     5.219     1.862     1.741  0.9526  0.2816 -0.1147
 
              Baa    -1.9264   139.395    49.740    46.497  0.8586 -0.1811  0.4796
     4 O(17)  Bbb    -1.9257   139.339    49.720    46.479  0.0625  0.9655  0.2527
              Bcc     3.8521  -278.734   -99.459   -92.976 -0.5089 -0.1870  0.8403
 
              Baa    -0.0150    -8.020    -2.862    -2.675  0.7445 -0.6077 -0.2763
     5 H(1)   Bbb    -0.0118    -6.272    -2.238    -2.092  0.4773  0.7740 -0.4161
              Bcc     0.0268    14.292     5.100     4.767  0.4668  0.1779  0.8663
 
              Baa    -0.0143    -7.626    -2.721    -2.544  0.4625 -0.0987  0.8811
     6 H(1)   Bbb    -0.0117    -6.261    -2.234    -2.089  0.7008  0.6494 -0.2951
              Bcc     0.0260    13.887     4.955     4.632 -0.5431  0.7540  0.3695
 
              Baa    -0.0145    -7.742    -2.762    -2.582  0.9927  0.0774 -0.0920
     7 H(1)   Bbb    -0.0117    -6.230    -2.223    -2.078  0.0537  0.3993  0.9152
              Bcc     0.0262    13.971     4.985     4.660 -0.1076  0.9135 -0.3923
 
              Baa    -0.0065    -3.451    -1.231    -1.151 -0.0724 -0.0403  0.9966
     8 H(1)   Bbb    -0.0052    -2.752    -0.982    -0.918  0.1069  0.9931  0.0479
              Bcc     0.0116     6.203     2.213     2.069  0.9916 -0.1100  0.0676
 
              Baa    -0.0048    -2.571    -0.917    -0.858 -0.2931  0.7121 -0.6379
     9 H(1)   Bbb    -0.0035    -1.872    -0.668    -0.624 -0.4982  0.4557  0.7376
              Bcc     0.0083     4.443     1.585     1.482  0.8160  0.5340  0.2212
 
              Baa    -0.0088    -4.703    -1.678    -1.569 -0.4043  0.9130  0.0541
    10 H(1)   Bbb    -0.0065    -3.457    -1.234    -1.153  0.3716  0.1099  0.9219
              Bcc     0.0153     8.161     2.912     2.722  0.8357  0.3928 -0.3837
 

 ---------------------------------------------------------------------------------

 No NMR shielding tensors so no spin-rotation constants.
 Leave Link  601 at Fri Oct  2 16:12:05 2015, MaxMem=    33554432 cpu:               0.3 elap:               0.5
 (Enter /home/gauss/gdvi03p/gdv/l9999.exe)
 Unable to Open any file for archive entry.
 1\1\GINC-MEDUSA\SP\ROHF\CC-pVDZ\C3H6O1(1+,2)\PLESTRAN\02-Oct-2015\0\\#
 p rohf/cc-pVDZ nosymm Field=X-100\\S-Propylene Oxide cc-pVDZ\\1,2\C,0,
 0.152133,-0.0358,0.485797\C,0,-1.039475,0.615938,-0.061249\C,0,1.50714
 4,0.097806,-0.14846\O,0,-0.828215,-0.788248,-0.239431\H,0,0.153725,-0.
 249258,1.552136\H,0,-1.863178,0.881921,0.593333\H,0,-0.949807,1.21421,
 -0.962771\H,0,2.076806,-0.826189,-0.036671\H,0,2.074465,0.901788,0.325
 106\H,0,1.414895,0.315852,-1.212218\\Version=ES64L-GDVRevI.03+\HF=-191
 .5897334\EFC=0.\RMSD=6.513e-09\Dipole=-0.0217879,0.4934736,0.3111671\Q
 uadrupole=2.6971384,-1.8610271,-0.8361113,-1.3117599,-0.1923657,-0.760
 7918\PG=C01 [X(C3H6O1)]\\@
 The archive entry for this job was punched.


 THE THINKER DIES, BUT HIS THOUGHTS ARE BEYOND THE 
 REACH OF DESTRUCTION.  MEN ARE MORTAL; BUT IDEAS 
 ARE IMMORTAL.
                              -- WALTER LIPPMANN
 Job cpu time:       0 days  0 hours  0 minutes  2.4 seconds.
 Elapsed time:       0 days  0 hours  0 minutes  3.0 seconds.
 File lengths (MBytes):  RWF=      5 Int=      0 D2E=      0 Chk=      2 Scr=      1
 Normal termination of Gaussian DV at Fri Oct  2 16:12:05 2015.
