 Entering Gaussian System, Link 0=gdv
 Input=propylene-oxide_sto3g_ROHF.com
 Output=propylene-oxide_sto3g_ROHF.log
 Initial command:
 /home/gauss/gdvi03p/gdv/l1.exe "/home/GauScr/Gau-15552.inp" -scrdir="/home/GauScr/"
 Entering Link 1 = /home/gauss/gdvi03p/gdv/l1.exe PID=     15553.
  
 Copyright (c) 1988,1990,1992,1993,1995,1998,2003,2009,2015,
            Gaussian, Inc.  All Rights Reserved.
  
 This is the private, development version of
 the Gaussian(R) DV system of programs. It is based on
 the Gaussian(R) 09 system (copyright 2009, Gaussian, Inc.),
 the Gaussian(R) 03 system (copyright 2003, Gaussian, Inc.),
 the Gaussian(R) 98 system (copyright 1998, Gaussian, Inc.),
 the Gaussian(R) 94 system (copyright 1995, Gaussian, Inc.),
 the Gaussian 92(TM) system (copyright 1992, Gaussian, Inc.),
 the Gaussian 90(TM) system (copyright 1990, Gaussian, Inc.),
 the Gaussian 88(TM) system (copyright 1988, Gaussian, Inc.),
 the Gaussian 86(TM) system (copyright 1986, Carnegie Mellon
 University), and the Gaussian 82(TM) system (copyright 1983,
 Carnegie Mellon University). Gaussian is a federally registered
 trademark of Gaussian, Inc.
  
 This software contains proprietary and confidential information,
 including trade secrets, belonging to Gaussian, Inc.
  
 This software is provided under written license and may be
 used, copied, transmitted, or stored only in accord with that
 written license.
  
 The following legend is applicable only to US Government
 contracts under FAR:
  
                    RESTRICTED RIGHTS LEGEND
  
 Use, reproduction and disclosure by the US Government is
 subject to restrictions as set forth in subparagraphs (a)
 and (c) of the Commercial Computer Software - Restricted
 Rights clause in FAR 52.227-19.
  
 Gaussian, Inc.
 340 Quinnipiac St., Bldg. 40, Wallingford CT 06492
  
  
 ---------------------------------------------------------------
 Warning -- This program may not be used in any manner that
 competes with the business of Gaussian, Inc. or will provide
 assistance to any competitor of Gaussian, Inc.  The licensee
 of this program is prohibited from giving any competitor of
 Gaussian, Inc. access to this program.  By using this program,
 the user acknowledges that Gaussian, Inc. is engaged in the
 business of creating and licensing software in the field of
 computational chemistry and represents and warrants to the
 licensee that it is not a competitor of Gaussian, Inc. and that
 it will not use this program in any manner prohibited above.
 ---------------------------------------------------------------
  

 Cite this work as:
 Gaussian Development Version, Revision I.03+,
 M. J. Frisch, G. W. Trucks, H. B. Schlegel, G. E. Scuseria, 
 M. A. Robb, J. R. Cheeseman, G. Scalmani, V. Barone, B. Mennucci, 
 G. A. Petersson, H. Nakatsuji, M. Caricato, X. Li, H. P. Hratchian, 
 J. Bloino, B. G. Janesko, A. F. Izmaylov, A. Marenich, F. Lipparini, 
 G. Zheng, J. L. Sonnenberg, W. Liang, M. Hada, M. Ehara, K. Toyota, 
 R. Fukuda, J. Hasegawa, M. Ishida, T. Nakajima, Y. Honda, O. Kitao, 
 H. Nakai, T. Vreven, K. Throssell, J. A. Montgomery, Jr., 
 J. E. Peralta, F. Ogliaro, M. Bearpark, J. J. Heyd, E. Brothers, 
 K. N. Kudin, V. N. Staroverov, T. Keith, R. Kobayashi, J. Normand, 
 K. Raghavachari, A. Rendell, J. C. Burant, S. S. Iyengar, J. Tomasi, 
 M. Cossi, N. Rega, J. M. Millam, M. Klene, J. E. Knox, J. B. Cross, 
 V. Bakken, C. Adamo, J. Jaramillo, R. Gomperts, R. E. Stratmann, 
 O. Yazyev, A. J. Austin, R. Cammi, C. Pomelli, J. W. Ochterski, 
 R. L. Martin, K. Morokuma, V. G. Zakrzewski, G. A. Voth, 
 P. Salvador, J. J. Dannenberg, S. Dapprich, P. V. Parandekar, 
 N. J. Mayhall, A. D. Daniels, O. Farkas, J. B. Foresman, 
 J. V. Ortiz, J. Cioslowski, and D. J. Fox, 
 Gaussian, Inc., Wallingford CT, 2014.
 
 *******************************************
 Gaussian DV:  ES64L-GDVRevI.03+  2-May-2015
                  2-Oct-2015 
 *******************************************
 ---------------------
 #p rohf/sto-3g nosymm
 ---------------------
 1/38=1,172=1/1;
 2/12=2,15=1,17=6,18=5,40=1/2;
 3/6=3,11=2,25=1,30=1,116=101/1,2,3;
 4//1;
 5/5=2,38=5/2;
 6/7=2,8=2,9=2,10=2,28=1/1;
 99/5=1,9=1/99;
 Leave Link    1 at Fri Oct  2 15:44:25 2015, MaxMem=           0 cpu:               0.0 elap:               0.0
 (Enter /home/gauss/gdvi03p/gdv/l101.exe)
 ------------------------
 S-Propylene Oxide STO-3G
 ------------------------
 Symbolic Z-matrix:
 Charge =  1 Multiplicity = 2
 C                     0.15213  -0.0358    0.4858 
 C                    -1.03947   0.61594  -0.06125 
 C                     1.50714   0.09781  -0.14846 
 O                    -0.82822  -0.78825  -0.23943 
 H                     0.15373  -0.24926   1.55214 
 H                    -1.86318   0.88192   0.59333 
 H                    -0.94981   1.21421  -0.96277 
 H                     2.07681  -0.82619  -0.03667 
 H                     2.07447   0.90179   0.32511 
 H                     1.4149    0.31585  -1.21222 
 
 ITRead=  0  0  0  0  0  0  0  0  0  0
 MicOpt= -1 -1 -1 -1 -1 -1 -1 -1 -1 -1
 NAtoms=     10 NQM=       10 NQMF=       0 NMMI=      0 NMMIF=      0
                NMic=       0 NMicF=      0.
                    Isotopes and Nuclear Properties:
 (Nuclear quadrupole moments (NQMom) in fm**2, nuclear magnetic moments (NMagM)
  in nuclear magnetons)

  Atom         1           2           3           4           5           6           7           8           9          10
 IAtWgt=          12          12          12          16           1           1           1           1           1           1
 AtmWgt=  12.0000000  12.0000000  12.0000000  15.9949146   1.0078250   1.0078250   1.0078250   1.0078250   1.0078250   1.0078250
 NucSpn=           0           0           0           0           1           1           1           1           1           1
 AtZEff=   0.0000000   0.0000000   0.0000000   0.0000000   0.0000000   0.0000000   0.0000000   0.0000000   0.0000000   0.0000000
 NQMom=    0.0000000   0.0000000   0.0000000   0.0000000   0.0000000   0.0000000   0.0000000   0.0000000   0.0000000   0.0000000
 NMagM=    0.0000000   0.0000000   0.0000000   0.0000000   2.7928460   2.7928460   2.7928460   2.7928460   2.7928460   2.7928460
 AtZNuc=   6.0000000   6.0000000   6.0000000   8.0000000   1.0000000   1.0000000   1.0000000   1.0000000   1.0000000   1.0000000
 Leave Link  101 at Fri Oct  2 15:44:25 2015, MaxMem=    33554432 cpu:               0.1 elap:               0.1
 (Enter /home/gauss/gdvi03p/gdv/l202.exe)
                          Input orientation:                          
 ---------------------------------------------------------------------
 Center     Atomic      Atomic             Coordinates (Angstroms)
 Number     Number       Type             X           Y           Z
 ---------------------------------------------------------------------
      1          6           0        0.152133   -0.035800    0.485797
      2          6           0       -1.039475    0.615938   -0.061249
      3          6           0        1.507144    0.097806   -0.148460
      4          8           0       -0.828215   -0.788248   -0.239431
      5          1           0        0.153725   -0.249258    1.552136
      6          1           0       -1.863178    0.881921    0.593333
      7          1           0       -0.949807    1.214210   -0.962771
      8          1           0        2.076806   -0.826189   -0.036671
      9          1           0        2.074465    0.901788    0.325106
     10          1           0        1.414895    0.315852   -1.212218
 ---------------------------------------------------------------------
                    Distance matrix (angstroms):
                    1          2          3          4          5
     1  C    0.000000
     2  C    1.464224   0.000000
     3  C    1.502061   2.600257   0.000000
     4  O    1.432905   1.431125   2.499454   0.000000
     5  H    1.087495   2.185246   2.200960   2.112919   0.000000
     6  H    2.217037   1.085224   3.538950   2.134036   2.503351
     7  H    2.207973   1.085685   2.818877   2.132567   3.111957
     8  H    2.145240   3.433881   1.091228   2.912336   2.560351
     9  H    2.144820   3.150810   1.092019   3.405947   2.553380
    10  H    2.145107   2.727400   1.089787   2.682703   3.090559
                    6          7          8          9         10
     6  H    0.000000
     7  H    1.834699   0.000000
     8  H    4.340279   3.765803   0.000000
     9  H    3.946818   3.301887   1.765444   0.000000
    10  H    3.784998   2.541867   1.767567   1.772489   0.000000
 Symmetry turned off by external request.
 Stoichiometry    C3H6O(1+,2)
 Framework group  C1[X(C3H6O)]
 Deg. of freedom    24
 Full point group                 C1      NOp   1
 Rotational constants (GHZ):     18.2269979      6.6669563      5.9403328
 Leave Link  202 at Fri Oct  2 15:44:25 2015, MaxMem=    33554432 cpu:               0.0 elap:               0.0
 (Enter /home/gauss/gdvi03p/gdv/l301.exe)
 Standard basis: STO-3G (5D, 7F)
 Ernie: Thresh=  0.10000D-02 Tol=  0.10000D-05 Strict=F.
    26 basis functions,    78 primitive gaussians,    26 cartesian basis functions
    16 alpha electrons       15 beta electrons
       nuclear repulsion energy       124.7885346707 Hartrees.
 IExCor=    0 DFT=F Ex=HF Corr=None ExCW=0 ScaHFX=  1.000000
 ScaDFX=  1.000000  1.000000  1.000000  1.000000 ScalE2=  1.000000  1.000000
 IRadAn=      0 IRanWt=     -1 IRanGd=            0 ICorTp=0 IEmpDi=  4
 NAtoms=   10 NActive=   10 NUniq=   10 SFac= 1.00D+00 NAtFMM=   60 NAOKFM=F Big=F
 Integral buffers will be    131072 words long.
 Raffenetti 2 integral format.
 Two-electron integral symmetry is turned off.
 Leave Link  301 at Fri Oct  2 15:44:25 2015, MaxMem=    33554432 cpu:               0.1 elap:               0.1
 (Enter /home/gauss/gdvi03p/gdv/l302.exe)
 NPDir=0 NMtPBC=     1 NCelOv=     1 NCel=       1 NClECP=     1 NCelD=      1
         NCelK=      1 NCelE2=     1 NClLst=     1 CellRange=     0.0.
 One-electron integrals computed using PRISM.
 One-electron integral symmetry used in STVInt
 NBasis=    26 RedAO= T EigKep=  2.09D-01  NBF=    26
 NBsUse=    26 1.00D-06 EigRej= -1.00D+00 NBFU=    26
 Leave Link  302 at Fri Oct  2 15:44:25 2015, MaxMem=    33554432 cpu:               0.1 elap:               0.1
 (Enter /home/gauss/gdvi03p/gdv/l303.exe)
 DipDrv:  MaxL=1.
 Leave Link  303 at Fri Oct  2 15:44:25 2015, MaxMem=    33554432 cpu:               0.0 elap:               0.0
 (Enter /home/gauss/gdvi03p/gdv/l401.exe)
 ExpMin= 1.69D-01 ExpMax= 1.31D+02 ExpMxC= 1.31D+02 IAcc=1 IRadAn=         1 AccDes= 0.00D+00
 Harris functional with IExCor=  205 and IRadAn=       1 diagonalized for initial guess.
 HarFok:  IExCor=  205 AccDes= 0.00D+00 IRadAn=         1 IDoV= 1 UseB2=F ITyADJ=14
 ICtDFT=  3500011 ScaDFX=  1.000000  1.000000  1.000000  1.000000
 FoFCou: FMM=F IPFlag=           0 FMFlag=      100000 FMFlg1=           0
         NFxFlg=           0 DoJE=T BraDBF=F KetDBF=T FulRan=T
         wScrn=  0.000000 ICntrl=       500 IOpCl=  0 I1Cent=   200000004 NGrid=           0
         NMat0=    1 NMatS0=      1 NMatT0=    0 NMatD0=    1 NMtDS0=    0 NMtDT0=    0
 Symmetry not used in FoFCou.
 Harris En= -189.441786860736    
 JPrj=0 DoOrth=F DoCkMO=F.
 Leave Link  401 at Fri Oct  2 15:44:25 2015, MaxMem=    33554432 cpu:               0.2 elap:               0.2
 (Enter /home/gauss/gdvi03p/gdv/l502.exe)
 Keep R1 and R2 ints in memory in canonical form, NReq=938551.
 FoFCou: FMM=F IPFlag=           0 FMFlag=           0 FMFlg1=           0
         NFxFlg=           0 DoJE=F BraDBF=F KetDBF=F FulRan=T
         wScrn=  0.000000 ICntrl=       600 IOpCl=  0 I1Cent=           0 NGrid=           0
         NMat0=    1 NMatS0=    351 NMatT0=    0 NMatD0=    1 NMtDS0=    0 NMtDT0=    0
 Symmetry not used in FoFCou.
 Two-electron integral symmetry not used.
 Restricted open shell SCF:
 Using DIIS extrapolation, IDIIS=  1040.
 NGot=    33554432 LenX=    33428760 LenY=    33427643
 Requested convergence on RMS density matrix=1.00D-08 within 128 cycles.
 Requested convergence on MAX density matrix=1.00D-06.
 Requested convergence on             energy=1.00D-06.
 No special actions if energy rises.

 Cycle   1  Pass 1  IDiag  1:
 E= -189.136553576134    
 DIIS: error= 6.98D-02 at cycle   1 NSaved=   1.
 NSaved= 1 IEnMin= 1 EnMin= -189.136553576134     IErMin= 1 ErrMin= 6.98D-02
 ErrMax= 6.98D-02  0.00D+00 EMaxC= 1.00D-01 BMatC= 1.25D-01 BMatP= 1.25D-01
 IDIUse=3 WtCom= 3.02D-01 WtEn= 6.98D-01
 Coeff-Com:  0.100D+01
 Coeff-En:   0.100D+01
 Coeff:      0.100D+01
 Gap=     0.528 Goal=   None    Shift=    0.000
 GapD=    0.528 DampG=2.000 DampE=0.500 DampFc=1.0000 IDamp=-1.
 RMSDP=2.01D-02 MaxDP=1.57D-01              OVMax= 0.00D+00

 Cycle   2  Pass 1  IDiag  1:
 E= -189.239427799138     Delta-E=       -0.102874223004 Rises=F Damp=F
 DIIS: error= 1.91D-02 at cycle   2 NSaved=   2.
 NSaved= 2 IEnMin= 2 EnMin= -189.239427799138     IErMin= 2 ErrMin= 1.91D-02
 ErrMax= 1.91D-02  0.00D+00 EMaxC= 1.00D-01 BMatC= 1.20D-02 BMatP= 1.25D-01
 IDIUse=3 WtCom= 8.09D-01 WtEn= 1.91D-01
 Coeff-Com:  0.205D+00 0.795D+00
 Coeff-En:   0.000D+00 0.100D+01
 Coeff:      0.166D+00 0.834D+00
 Gap=     0.441 Goal=   None    Shift=    0.000
 RMSDP=8.29D-03 MaxDP=6.80D-02 DE=-1.03D-01 OVMax= 0.00D+00

 Cycle   3  Pass 1  IDiag  1:
 E= -189.264867581989     Delta-E=       -0.025439782851 Rises=F Damp=F
 DIIS: error= 1.03D-02 at cycle   3 NSaved=   3.
 NSaved= 3 IEnMin= 3 EnMin= -189.264867581989     IErMin= 3 ErrMin= 1.03D-02
 ErrMax= 1.03D-02  0.00D+00 EMaxC= 1.00D-01 BMatC= 2.01D-03 BMatP= 1.20D-02
 IDIUse=3 WtCom= 8.97D-01 WtEn= 1.03D-01
 Coeff-Com: -0.195D-01 0.250D+00 0.769D+00
 Coeff-En:   0.000D+00 0.000D+00 0.100D+01
 Coeff:     -0.175D-01 0.224D+00 0.793D+00
 Gap=     0.451 Goal=   None    Shift=    0.000
 RMSDP=2.32D-03 MaxDP=1.67D-02 DE=-2.54D-02 OVMax= 0.00D+00

 Cycle   4  Pass 1  IDiag  1:
 E= -189.267654306193     Delta-E=       -0.002786724204 Rises=F Damp=F
 DIIS: error= 2.03D-03 at cycle   4 NSaved=   4.
 NSaved= 4 IEnMin= 4 EnMin= -189.267654306193     IErMin= 4 ErrMin= 2.03D-03
 ErrMax= 2.03D-03  0.00D+00 EMaxC= 1.00D-01 BMatC= 5.86D-05 BMatP= 2.01D-03
 IDIUse=3 WtCom= 9.80D-01 WtEn= 2.03D-02
 Coeff-Com: -0.107D-01 0.155D-01 0.735D-03 0.994D+00
 Coeff-En:   0.000D+00 0.000D+00 0.000D+00 0.100D+01
 Coeff:     -0.105D-01 0.151D-01 0.720D-03 0.995D+00
 Gap=     0.453 Goal=   None    Shift=    0.000
 RMSDP=6.58D-04 MaxDP=4.36D-03 DE=-2.79D-03 OVMax= 0.00D+00

 Cycle   5  Pass 1  IDiag  1:
 E= -189.267903382144     Delta-E=       -0.000249075951 Rises=F Damp=F
 DIIS: error= 6.41D-04 at cycle   5 NSaved=   5.
 NSaved= 5 IEnMin= 5 EnMin= -189.267903382144     IErMin= 5 ErrMin= 6.41D-04
 ErrMax= 6.41D-04  0.00D+00 EMaxC= 1.00D-01 BMatC= 8.32D-06 BMatP= 5.86D-05
 IDIUse=3 WtCom= 9.94D-01 WtEn= 6.41D-03
 Coeff-Com:  0.182D-02-0.111D-01-0.938D-01-0.910D-01 0.119D+01
 Coeff-En:   0.000D+00 0.000D+00 0.000D+00 0.000D+00 0.100D+01
 Coeff:      0.181D-02-0.111D-01-0.932D-01-0.904D-01 0.119D+01
 Gap=     0.454 Goal=   None    Shift=    0.000
 RMSDP=3.01D-04 MaxDP=2.31D-03 DE=-2.49D-04 OVMax= 0.00D+00

 Cycle   6  Pass 1  IDiag  1:
 E= -189.267930614166     Delta-E=       -0.000027232022 Rises=F Damp=F
 DIIS: error= 5.78D-05 at cycle   6 NSaved=   6.
 NSaved= 6 IEnMin= 6 EnMin= -189.267930614166     IErMin= 6 ErrMin= 5.78D-05
 ErrMax= 5.78D-05  0.00D+00 EMaxC= 1.00D-01 BMatC= 1.82D-07 BMatP= 8.32D-06
 IDIUse=1 WtCom= 1.00D+00 WtEn= 0.00D+00
 Coeff-Com:  0.424D-03-0.189D-02-0.348D-02-0.271D-01 0.783D-01 0.954D+00
 Coeff:      0.424D-03-0.189D-02-0.348D-02-0.271D-01 0.783D-01 0.954D+00
 Gap=     0.454 Goal=   None    Shift=    0.000
 RMSDP=4.93D-05 MaxDP=6.05D-04 DE=-2.72D-05 OVMax= 0.00D+00

 Cycle   7  Pass 1  IDiag  1:
 E= -189.267931931123     Delta-E=       -0.000001316957 Rises=F Damp=F
 DIIS: error= 3.98D-05 at cycle   7 NSaved=   7.
 NSaved= 7 IEnMin= 7 EnMin= -189.267931931123     IErMin= 7 ErrMin= 3.98D-05
 ErrMax= 3.98D-05  0.00D+00 EMaxC= 1.00D-01 BMatC= 3.55D-08 BMatP= 1.82D-07
 IDIUse=1 WtCom= 1.00D+00 WtEn= 0.00D+00
 Coeff-Com: -0.203D-03 0.572D-03 0.112D-01 0.160D-01-0.131D+00 0.249D-01
 Coeff-Com:  0.108D+01
 Coeff:     -0.203D-03 0.572D-03 0.112D-01 0.160D-01-0.131D+00 0.249D-01
 Coeff:      0.108D+01
 Gap=     0.454 Goal=   None    Shift=    0.000
 RMSDP=4.12D-05 MaxDP=5.87D-04 DE=-1.32D-06 OVMax= 0.00D+00

 Cycle   8  Pass 1  IDiag  1:
 E= -189.267932733029     Delta-E=       -0.000000801906 Rises=F Damp=F
 DIIS: error= 8.57D-06 at cycle   8 NSaved=   8.
 NSaved= 8 IEnMin= 8 EnMin= -189.267932733029     IErMin= 8 ErrMin= 8.57D-06
 ErrMax= 8.57D-06  0.00D+00 EMaxC= 1.00D-01 BMatC= 3.00D-09 BMatP= 3.55D-08
 IDIUse=1 WtCom= 1.00D+00 WtEn= 0.00D+00
 Coeff-Com: -0.167D-04 0.436D-04-0.105D-02 0.744D-03 0.742D-02-0.756D-01
 Coeff-Com: -0.123D+00 0.119D+01
 Coeff:     -0.167D-04 0.436D-04-0.105D-02 0.744D-03 0.742D-02-0.756D-01
 Coeff:     -0.123D+00 0.119D+01
 Gap=     0.454 Goal=   None    Shift=    0.000
 RMSDP=3.24D-05 MaxDP=4.66D-04 DE=-8.02D-07 OVMax= 0.00D+00

 Cycle   9  Pass 1  IDiag  1:
 E= -189.267933176780     Delta-E=       -0.000000443751 Rises=F Damp=F
 DIIS: error= 5.81D-06 at cycle   9 NSaved=   9.
 NSaved= 9 IEnMin= 9 EnMin= -189.267933176780     IErMin= 9 ErrMin= 5.81D-06
 ErrMax= 5.81D-06  0.00D+00 EMaxC= 1.00D-01 BMatC= 1.20D-09 BMatP= 3.00D-09
 IDIUse=1 WtCom= 1.00D+00 WtEn= 0.00D+00
 Coeff-Com:  0.678D-04-0.112D-03-0.273D-02-0.529D-02 0.303D-01 0.131D-01
 Coeff-Com: -0.227D+00-0.318D+00 0.151D+01
 Coeff:      0.678D-04-0.112D-03-0.273D-02-0.529D-02 0.303D-01 0.131D-01
 Coeff:     -0.227D+00-0.318D+00 0.151D+01
 Gap=     0.454 Goal=   None    Shift=    0.000
 RMSDP=3.48D-05 MaxDP=4.93D-04 DE=-4.44D-07 OVMax= 0.00D+00

 Cycle  10  Pass 1  IDiag  1:
 E= -189.267933490359     Delta-E=       -0.000000313580 Rises=F Damp=F
 DIIS: error= 3.63D-06 at cycle  10 NSaved=  10.
 NSaved=10 IEnMin=10 EnMin= -189.267933490359     IErMin=10 ErrMin= 3.63D-06
 ErrMax= 3.63D-06  0.00D+00 EMaxC= 1.00D-01 BMatC= 3.03D-10 BMatP= 1.20D-09
 IDIUse=1 WtCom= 1.00D+00 WtEn= 0.00D+00
 Coeff-Com: -0.472D-04 0.147D-03 0.228D-02 0.382D-02-0.225D-01-0.123D-02
 Coeff-Com:  0.168D+00-0.100D+00-0.111D+01 0.206D+01
 Coeff:     -0.472D-04 0.147D-03 0.228D-02 0.382D-02-0.225D-01-0.123D-02
 Coeff:      0.168D+00-0.100D+00-0.111D+01 0.206D+01
 Gap=     0.454 Goal=   None    Shift=    0.000
 RMSDP=3.44D-05 MaxDP=4.84D-04 DE=-3.14D-07 OVMax= 0.00D+00

 Cycle  11  Pass 1  IDiag  1:
 E= -189.267933639233     Delta-E=       -0.000000148874 Rises=F Damp=F
 DIIS: error= 1.20D-06 at cycle  11 NSaved=  11.
 NSaved=11 IEnMin=11 EnMin= -189.267933639233     IErMin=11 ErrMin= 1.20D-06
 ErrMax= 1.20D-06  0.00D+00 EMaxC= 1.00D-01 BMatC= 3.94D-11 BMatP= 3.03D-10
 IDIUse=1 WtCom= 1.00D+00 WtEn= 0.00D+00
 Coeff-Com: -0.101D-04 0.204D-04 0.368D-03 0.703D-03-0.449D-02-0.133D-02
 Coeff-Com:  0.334D-01 0.341D-01-0.232D+00 0.487D-02 0.116D+01
 Coeff:     -0.101D-04 0.204D-04 0.368D-03 0.703D-03-0.449D-02-0.133D-02
 Coeff:      0.334D-01 0.341D-01-0.232D+00 0.487D-02 0.116D+01
 Gap=     0.454 Goal=   None    Shift=    0.000
 RMSDP=1.02D-05 MaxDP=1.34D-04 DE=-1.49D-07 OVMax= 0.00D+00

 Cycle  12  Pass 1  IDiag  1:
 E= -189.267933653469     Delta-E=       -0.000000014236 Rises=F Damp=F
 DIIS: error= 5.86D-07 at cycle  12 NSaved=  12.
 NSaved=12 IEnMin=12 EnMin= -189.267933653469     IErMin=12 ErrMin= 5.86D-07
 ErrMax= 5.86D-07  0.00D+00 EMaxC= 1.00D-01 BMatC= 9.89D-12 BMatP= 3.94D-11
 IDIUse=1 WtCom= 1.00D+00 WtEn= 0.00D+00
 Coeff-Com:  0.821D-05-0.205D-04-0.384D-03-0.723D-03 0.373D-02 0.554D-03
 Coeff-Com: -0.282D-01 0.805D-02 0.188D+00-0.316D+00-0.151D+00 0.130D+01
 Coeff:      0.821D-05-0.205D-04-0.384D-03-0.723D-03 0.373D-02 0.554D-03
 Coeff:     -0.282D-01 0.805D-02 0.188D+00-0.316D+00-0.151D+00 0.130D+01
 Gap=     0.454 Goal=   None    Shift=    0.000
 RMSDP=4.01D-06 MaxDP=5.91D-05 DE=-1.42D-08 OVMax= 0.00D+00

 Cycle  13  Pass 1  IDiag  1:
 E= -189.267933655868     Delta-E=       -0.000000002399 Rises=F Damp=F
 DIIS: error= 2.71D-07 at cycle  13 NSaved=  13.
 NSaved=13 IEnMin=13 EnMin= -189.267933655868     IErMin=13 ErrMin= 2.71D-07
 ErrMax= 2.71D-07  0.00D+00 EMaxC= 1.00D-01 BMatC= 3.25D-12 BMatP= 9.89D-12
 IDIUse=1 WtCom= 1.00D+00 WtEn= 0.00D+00
 Coeff-Com: -0.552D-05 0.244D-04 0.268D-03 0.447D-03-0.214D-02-0.125D-02
 Coeff-Com:  0.136D-01-0.139D-01-0.901D-01 0.275D+00-0.279D+00-0.827D+00
 Coeff-Com:  0.192D+01
 Coeff:     -0.552D-05 0.244D-04 0.268D-03 0.447D-03-0.214D-02-0.125D-02
 Coeff:      0.136D-01-0.139D-01-0.901D-01 0.275D+00-0.279D+00-0.827D+00
 Coeff:      0.192D+01
 Gap=     0.454 Goal=   None    Shift=    0.000
 RMSDP=2.02D-06 MaxDP=3.69D-05 DE=-2.40D-09 OVMax= 0.00D+00

 Cycle  14  Pass 1  IDiag  1:
 E= -189.267933656540     Delta-E=       -0.000000000673 Rises=F Damp=F
 DIIS: error= 1.02D-07 at cycle  14 NSaved=  14.
 NSaved=14 IEnMin=14 EnMin= -189.267933656540     IErMin=14 ErrMin= 1.02D-07
 ErrMax= 1.02D-07  0.00D+00 EMaxC= 1.00D-01 BMatC= 7.05D-13 BMatP= 3.25D-12
 IDIUse=1 WtCom= 1.00D+00 WtEn= 0.00D+00
 Coeff-Com: -0.199D-05 0.415D-05 0.814D-04 0.153D-03-0.100D-02 0.287D-03
 Coeff-Com:  0.844D-02 0.133D-02-0.548D-01 0.432D-01 0.159D+00-0.173D+00
 Coeff-Com: -0.587D+00 0.160D+01
 Coeff:     -0.199D-05 0.415D-05 0.814D-04 0.153D-03-0.100D-02 0.287D-03
 Coeff:      0.844D-02 0.133D-02-0.548D-01 0.432D-01 0.159D+00-0.173D+00
 Coeff:     -0.587D+00 0.160D+01
 Gap=     0.454 Goal=   None    Shift=    0.000
 RMSDP=8.96D-07 MaxDP=1.65D-05 DE=-6.73D-10 OVMax= 0.00D+00

 Cycle  15  Pass 1  IDiag  1:
 E= -189.267933656640     Delta-E=       -0.000000000100 Rises=F Damp=F
 DIIS: error= 5.38D-08 at cycle  15 NSaved=  15.
 NSaved=15 IEnMin=15 EnMin= -189.267933656640     IErMin=15 ErrMin= 5.38D-08
 ErrMax= 5.38D-08  0.00D+00 EMaxC= 1.00D-01 BMatC= 9.71D-14 BMatP= 7.05D-13
 IDIUse=1 WtCom= 1.00D+00 WtEn= 0.00D+00
 Coeff-Com:  0.476D-06-0.243D-05-0.263D-04-0.461D-04 0.131D-03 0.219D-03
 Coeff-Com: -0.461D-03 0.246D-02 0.270D-02-0.308D-01 0.607D-01 0.882D-01
 Coeff-Com: -0.318D+00 0.159D+00 0.104D+01
 Coeff:      0.476D-06-0.243D-05-0.263D-04-0.461D-04 0.131D-03 0.219D-03
 Coeff:     -0.461D-03 0.246D-02 0.270D-02-0.308D-01 0.607D-01 0.882D-01
 Coeff:     -0.318D+00 0.159D+00 0.104D+01
 Gap=     0.454 Goal=   None    Shift=    0.000
 RMSDP=1.77D-07 MaxDP=3.28D-06 DE=-9.97D-11 OVMax= 0.00D+00

 Cycle  16  Pass 1  IDiag  1:
 E= -189.267933656643     Delta-E=       -0.000000000003 Rises=F Damp=F
 DIIS: error= 4.95D-09 at cycle  16 NSaved=  16.
 NSaved=16 IEnMin=16 EnMin= -189.267933656643     IErMin=16 ErrMin= 4.95D-09
 ErrMax= 4.95D-09  0.00D+00 EMaxC= 1.00D-01 BMatC= 1.71D-15 BMatP= 9.71D-14
 IDIUse=1 WtCom= 1.00D+00 WtEn= 0.00D+00
 Large coefficients: NSaved= 16 BigCof=    0.00 CofMax=   10.00 Det=-8.49D-15
 Inversion failed.  Reducing to 15 matrices.
 Coeff-Com:  0.308D-06 0.574D-08-0.684D-06 0.227D-04-0.890D-04-0.330D-03
 Coeff-Com:  0.189D-03 0.178D-02 0.526D-03-0.125D-01 0.186D-03 0.617D-01
 Coeff-Com: -0.102D+00-0.103D+00 0.115D+01
 Coeff:      0.308D-06 0.574D-08-0.684D-06 0.227D-04-0.890D-04-0.330D-03
 Coeff:      0.189D-03 0.178D-02 0.526D-03-0.125D-01 0.186D-03 0.617D-01
 Coeff:     -0.102D+00-0.103D+00 0.115D+01
 Gap=     0.454 Goal=   None    Shift=    0.000
 RMSDP=1.53D-08 MaxDP=2.52D-07 DE=-3.18D-12 OVMax= 0.00D+00

 Cycle  17  Pass 1  IDiag  1:
 E= -189.267933656643     Delta-E=        0.000000000000 Rises=F Damp=F
 DIIS: error= 2.66D-09 at cycle  17 NSaved=  16.
 NSaved=16 IEnMin=16 EnMin= -189.267933656643     IErMin=16 ErrMin= 2.66D-09
 ErrMax= 2.66D-09  0.00D+00 EMaxC= 1.00D-01 BMatC= 1.70D-16 BMatP= 1.71D-15
 IDIUse=1 WtCom= 1.00D+00 WtEn= 0.00D+00
 Large coefficients: NSaved= 16 BigCof=    0.00 CofMax=   10.00 Det=-7.45D-16
 Inversion failed.  Reducing to 15 matrices.
 Coeff-Com: -0.123D-07 0.224D-06 0.851D-05-0.117D-04-0.894D-04-0.124D-03
 Coeff-Com:  0.549D-03 0.660D-03-0.403D-02-0.165D-02 0.179D-01-0.190D-01
 Coeff-Com: -0.533D-01 0.117D+00 0.942D+00
 Coeff:     -0.123D-07 0.224D-06 0.851D-05-0.117D-04-0.894D-04-0.124D-03
 Coeff:      0.549D-03 0.660D-03-0.403D-02-0.165D-02 0.179D-01-0.190D-01
 Coeff:     -0.533D-01 0.117D+00 0.942D+00
 Gap=     0.454 Goal=   None    Shift=    0.000
 RMSDP=4.49D-09 MaxDP=6.83D-08 DE=-1.14D-13 OVMax= 0.00D+00

 SCF Done:  E(ROHF) =  -189.267933657     A.U. after   17 cycles
            NFock= 17  Conv=0.45D-08     -V/T= 2.0145
 <Sx>= 0.0000 <Sy>= 0.0000 <Sz>= 0.5000 <S**2>= 0.7500 S= 0.5000
 <L.S>= 0.000000000000E+00
 KE= 1.865656069149D+02 PE=-6.816588130718D+02 EE= 1.810367378295D+02
 Annihilation of the first spin contaminant:
 S**2 before annihilation     0.7500,   after     0.7500
 Leave Link  502 at Fri Oct  2 15:44:26 2015, MaxMem=    33554432 cpu:               0.1 elap:               0.1
 (Enter /home/gauss/gdvi03p/gdv/l601.exe)
 Copying SCF densities to generalized density rwf, IOpCl= 0 IROHF=1.

 **********************************************************************

            Population analysis using the SCF density.

 **********************************************************************

 Alpha  occ. eigenvalues --  -20.86252 -11.43956 -11.43567 -11.28956  -1.75973
 Alpha  occ. eigenvalues --   -1.24926  -1.17828  -1.07451  -0.95380  -0.90477
 Alpha  occ. eigenvalues --   -0.85912  -0.79140  -0.76269  -0.73448  -0.69622
 Alpha  occ. eigenvalues --   -0.34985
 Alpha virt. eigenvalues --    0.10380   0.16655   0.32787   0.37703   0.39284
 Alpha virt. eigenvalues --    0.42113   0.49910   0.52363   0.53542   0.56488
          Condensed to atoms (all electrons):
               1          2          3          4          5          6
     1  C    4.794091   0.311806   0.359046   0.159241   0.382407  -0.014728
     2  C    0.311806   4.801944  -0.017961   0.161925  -0.018268   0.381753
     3  C    0.359046  -0.017961   4.726673  -0.010830  -0.017595   0.000713
     4  O    0.159241   0.161925  -0.010830   7.579137  -0.010222  -0.008821
     5  H    0.382407  -0.018268  -0.017595  -0.010222   0.481492  -0.003700
     6  H   -0.014728   0.381753   0.000713  -0.008821  -0.003700   0.463063
     7  H   -0.016027   0.380895  -0.002873  -0.008933   0.001116  -0.015429
     8  H   -0.021896   0.001348   0.382961  -0.000639  -0.001749  -0.000023
     9  H   -0.017561  -0.000730   0.381380   0.000529  -0.001497  -0.000004
    10  H   -0.023467  -0.002870   0.384494  -0.000747   0.001512   0.000000
               7          8          9         10
     1  C   -0.016027  -0.021896  -0.017561  -0.023467
     2  C    0.380895   0.001348  -0.000730  -0.002870
     3  C   -0.002873   0.382961   0.381380   0.384494
     4  O   -0.008933  -0.000639   0.000529  -0.000747
     5  H    0.001116  -0.001749  -0.001497   0.001512
     6  H   -0.015429  -0.000023  -0.000004   0.000000
     7  H    0.466365   0.000015   0.000164   0.000447
     8  H    0.000015   0.545364  -0.016637  -0.018922
     9  H    0.000164  -0.016637   0.530905  -0.016976
    10  H    0.000447  -0.018922  -0.016976   0.565669
          Atomic-Atomic Spin Densities.
               1          2          3          4          5          6
     1  C    0.007880   0.001386   0.003966  -0.011492   0.003266   0.000376
     2  C    0.001386   0.006690   0.000460  -0.010645   0.000328   0.003262
     3  C    0.003966   0.000460   0.011295  -0.002955  -0.001470  -0.000097
     4  O   -0.011492  -0.010645  -0.002955   0.979107  -0.003154  -0.002916
     5  H    0.003266   0.000328  -0.001470  -0.003154   0.011470   0.000555
     6  H    0.000376   0.003262  -0.000097  -0.002916   0.000555   0.011095
     7  H    0.000500   0.003473   0.000374  -0.002914  -0.000160  -0.001697
     8  H   -0.000030  -0.000002  -0.000038   0.000021   0.000018   0.000000
     9  H   -0.000261  -0.000027  -0.000059   0.000044   0.000157   0.000007
    10  H   -0.000212  -0.000057  -0.000192   0.000295   0.000028   0.000006
               7          8          9         10
     1  C    0.000500  -0.000030  -0.000261  -0.000212
     2  C    0.003473  -0.000002  -0.000027  -0.000057
     3  C    0.000374  -0.000038  -0.000059  -0.000192
     4  O   -0.002914   0.000021   0.000044   0.000295
     5  H   -0.000160   0.000018   0.000157   0.000028
     6  H   -0.001697   0.000000   0.000007   0.000006
     7  H    0.010744  -0.000001  -0.000032  -0.000083
     8  H   -0.000001   0.000015   0.000022   0.000012
     9  H   -0.000032   0.000022   0.001072   0.000098
    10  H   -0.000083   0.000012   0.000098   0.000305
 Mulliken charges and spin densities:
               1          2
     1  C    0.087089   0.005378
     2  C    0.000158   0.004870
     3  C   -0.186009   0.011285
     4  O    0.139361   0.945391
     5  H    0.186503   0.011040
     6  H    0.197176   0.010592
     7  H    0.194259   0.010204
     8  H    0.130177   0.000019
     9  H    0.140426   0.001021
    10  H    0.110860   0.000200
 Sum of Mulliken charges =   1.00000   1.00000
 Mulliken charges and spin densities with hydrogens summed into heavy atoms:
               1          2
     1  C    0.273592   0.016418
     2  C    0.391593   0.025666
     3  C    0.195454   0.012525
     4  O    0.139361   0.945391
 Electronic spatial extent (au):  <R**2>=            253.0158
 Charge=              1.0000 electrons
 Dipole moment (field-independent basis, Debye):
    X=             -1.4111    Y=              0.7603    Z=              0.6294  Tot=              1.7220
 Quadrupole moment (field-independent basis, Debye-Ang):
   XX=            -15.7597   YY=            -20.6383   ZZ=            -19.2319
   XY=             -1.4410   XZ=             -0.2738   YZ=             -0.9466
 Traceless Quadrupole moment (field-independent basis, Debye-Ang):
   XX=              2.7836   YY=             -2.0950   ZZ=             -0.6886
   XY=             -1.4410   XZ=             -0.2738   YZ=             -0.9466
 Octapole moment (field-independent basis, Debye-Ang**2):
  XXX=             -5.2190  YYY=             -2.3752  ZZZ=              0.0916  XYY=             -1.9763
  XXY=              1.7219  XXZ=              1.5915  XZZ=             -2.2685  YZZ=             -0.4349
  YYZ=             -0.6710  XYZ=              0.5146
 Hexadecapole moment (field-independent basis, Debye-Ang**3):
 XXXX=           -172.7572 YYYY=            -57.6261 ZZZZ=            -39.2308 XXXY=             -0.5375
 XXXZ=             -1.6281 YYYX=              0.8847 YYYZ=             -0.4675 ZZZX=              0.9378
 ZZZY=             -1.4863 XXYY=            -35.8448 XXZZ=            -38.0116 YYZZ=            -16.0983
 XXYZ=              1.9949 YYXZ=              0.9942 ZZXY=              0.2355
 N-N= 1.247885346707D+02 E-N=-6.816588130511D+02  KE= 1.865656069149D+02
                          Isotropic Fermi Contact Couplings
        Atom                 a.u.       MegaHertz       Gauss      10(-4) cm-1
     1  C(13)              0.00007       0.07507       0.02679       0.02504
     2  C(13)              0.00002       0.01920       0.00685       0.00640
     3  C(13)              0.00500       5.62235       2.00620       1.87541
     4  O(17)              0.00002      -0.01148      -0.00410      -0.00383
     5  H(1)               0.00567      25.36244       9.04995       8.46000
     6  H(1)               0.00545      24.35446       8.69028       8.12377
     7  H(1)               0.00529      23.64058       8.43555       7.88565
     8  H(1)               0.00001       0.03584       0.01279       0.01196
     9  H(1)               0.00051       2.30100       0.82105       0.76753
    10  H(1)               0.00010       0.45879       0.16371       0.15303
 --------------------------------------------------------
       Center         ----  Spin Dipole Couplings  ----
                      3XX-RR        3YY-RR        3ZZ-RR
 --------------------------------------------------------
     1   Atom        0.013175     -0.015952      0.002778
     2   Atom       -0.035687      0.061626     -0.025939
     3   Atom        0.026025     -0.012418     -0.013607
     4   Atom       -0.335995     -1.227993      1.563988
     5   Atom       -0.004175     -0.012078      0.016253
     6   Atom       -0.003083      0.011695     -0.008612
     7   Atom       -0.014145      0.022227     -0.008082
     8   Atom        0.011323     -0.005162     -0.006161
     9   Atom        0.004180     -0.000816     -0.003364
    10   Atom        0.008549     -0.004718     -0.003831
 --------------------------------------------------------
                        XY            XZ            YZ
 --------------------------------------------------------
     1   Atom        0.042279      0.025978      0.024394
     2   Atom       -0.014017     -0.014185      0.008892
     3   Atom        0.011987     -0.004734     -0.000493
     4   Atom        0.389677     -1.746185     -0.657031
     5   Atom        0.005337      0.017433      0.007765
     6   Atom       -0.016270     -0.008186      0.011521
     7   Atom       -0.003901      0.001321     -0.013364
     8   Atom       -0.001377      0.001315     -0.000155
     9   Atom        0.005161      0.001790      0.001759
    10   Atom        0.008075     -0.006705     -0.003453
 --------------------------------------------------------


 ---------------------------------------------------------------------------------
              Anisotropic Spin Dipole Couplings in Principal Axis System
 ---------------------------------------------------------------------------------

       Atom             a.u.   MegaHertz   Gauss  10(-4) cm-1        Axes

              Baa    -0.0467    -6.273    -2.238    -2.092 -0.5325  0.8360 -0.1325
     1 C(13)  Bbb    -0.0171    -2.292    -0.818    -0.765 -0.4885 -0.1756  0.8547
              Bcc     0.0638     8.565     3.056     2.857  0.6913  0.5198  0.5019
 
              Baa    -0.0462    -6.200    -2.212    -2.068  0.8303  0.0622  0.5539
     2 C(13)  Bbb    -0.0187    -2.510    -0.896    -0.837 -0.5358 -0.1847  0.8239
              Bcc     0.0649     8.710     3.108     2.905 -0.1536  0.9808  0.1200
 
              Baa    -0.0162    -2.171    -0.775    -0.724 -0.2920  0.8826 -0.3684
     3 C(13)  Bbb    -0.0138    -1.849    -0.660    -0.617 -0.0057  0.3836  0.9235
              Bcc     0.0300     4.020     1.435     1.341  0.9564  0.2718 -0.1070
 
              Baa    -1.3751    99.504    35.506    33.191  0.3392  0.8548  0.3926
     4 O(17)  Bbb    -1.3735    99.384    35.463    33.151  0.7957 -0.4834  0.3649
              Bcc     2.7486  -198.888   -70.968   -66.342 -0.5017 -0.1886  0.8442
 
              Baa    -0.0150    -7.983    -2.848    -2.663 -0.6756  0.7094  0.2008
     5 H(1)   Bbb    -0.0135    -7.182    -2.563    -2.396  0.5528  0.6676 -0.4988
              Bcc     0.0284    15.165     5.411     5.058  0.4879  0.2259  0.8431
 
              Baa    -0.0145    -7.733    -2.759    -2.579  0.6196  0.0401  0.7839
     6 H(1)   Bbb    -0.0132    -7.031    -2.509    -2.345  0.5972  0.6241 -0.5039
              Bcc     0.0277    14.764     5.268     4.925 -0.5094  0.7804  0.3627
 
              Baa    -0.0146    -7.771    -2.773    -2.592  0.9902  0.1263  0.0588
     7 H(1)   Bbb    -0.0131    -7.000    -2.498    -2.335 -0.0991  0.3423  0.9343
              Bcc     0.0277    14.771     5.270     4.927 -0.0979  0.9310 -0.3515
 
              Baa    -0.0063    -3.341    -1.192    -1.114 -0.0704  0.0521  0.9962
     8 H(1)   Bbb    -0.0053    -2.814    -1.004    -0.939  0.0862  0.9952 -0.0459
              Bcc     0.0115     6.155     2.196     2.053  0.9938 -0.0827  0.0745
 
              Baa    -0.0045    -2.405    -0.858    -0.802 -0.2913  0.7119 -0.6390
     9 H(1)   Bbb    -0.0034    -1.836    -0.655    -0.612 -0.4879  0.4640  0.7393
              Bcc     0.0079     4.241     1.513     1.415  0.8228  0.5272  0.2122
 
              Baa    -0.0086    -4.571    -1.631    -1.525 -0.3826  0.9153  0.1257
    10 H(1)   Bbb    -0.0068    -3.609    -1.288    -1.204  0.3856  0.0345  0.9220
              Bcc     0.0153     8.180     2.919     2.729  0.8396  0.4012 -0.3661
 

 ---------------------------------------------------------------------------------

 No NMR shielding tensors so no spin-rotation constants.
 Leave Link  601 at Fri Oct  2 15:44:26 2015, MaxMem=    33554432 cpu:               0.2 elap:               0.2
 (Enter /home/gauss/gdvi03p/gdv/l9999.exe)
 Unable to Open any file for archive entry.
 1\1\GINC-MEDUSA\SP\ROHF\STO-3G\C3H6O1(1+,2)\PLESTRAN\02-Oct-2015\0\\#p
  rohf/sto-3g nosymm\\S-Propylene Oxide STO-3G\\1,2\C,0,0.152133,-0.035
 8,0.485797\C,0,-1.039475,0.615938,-0.061249\C,0,1.507144,0.097806,-0.1
 4846\O,0,-0.828215,-0.788248,-0.239431\H,0,0.153725,-0.249258,1.552136
 \H,0,-1.863178,0.881921,0.593333\H,0,-0.949807,1.21421,-0.962771\H,0,2
 .076806,-0.826189,-0.036671\H,0,2.074465,0.901788,0.325106\H,0,1.41489
 5,0.315852,-1.212218\\Version=ES64L-GDVRevI.03+\HF=-189.2679337\EFC=0.
 \RMSD=4.491e-09\Dipole=-0.5551624,0.2991077,0.2476355\Quadrupole=2.069
 5375,-1.5575614,-0.5119761,-1.0713217,-0.2035555,-0.7037859\PG=C01 [X(
 C3H6O1)]\\@
 The archive entry for this job was punched.


 THE 2ND LAW OF THERMODYNAMICS HAS THE SAME
 DEGREE OF TRUTH AS THE STATEMENT THAT IF YOU THROW
 A TUMBLERFULL OF WATER INTO THE SEA, YOU CANNOT GET
 THE SAME TUMBLERFULL OF WATER OUT AGAIN.
          - J.C. MAXWELL, LETTER TO LORD RAYLEIGH, DECEMBER 6,1870
 Job cpu time:       0 days  0 hours  0 minutes  1.1 seconds.
 Elapsed time:       0 days  0 hours  0 minutes  0.9 seconds.
 File lengths (MBytes):  RWF=      5 Int=      0 D2E=      0 Chk=      1 Scr=      1
 Normal termination of Gaussian DV at Fri Oct  2 15:44:26 2015.
