 Entering Gaussian System, Link 0=gdv
 Input=propylene-oxide_6-31G_ROHF_field.com
 Output=propylene-oxide_6-31G_ROHF_field.log
 Initial command:
 /home/gauss/gdvi03p/gdv/l1.exe "/home/GauScr/Gau-26455.inp" -scrdir="/home/GauScr/"
 Entering Link 1 = /home/gauss/gdvi03p/gdv/l1.exe PID=     26456.
  
 Copyright (c) 1988,1990,1992,1993,1995,1998,2003,2009,2015,
            Gaussian, Inc.  All Rights Reserved.
  
 This is the private, development version of
 the Gaussian(R) DV system of programs. It is based on
 the Gaussian(R) 09 system (copyright 2009, Gaussian, Inc.),
 the Gaussian(R) 03 system (copyright 2003, Gaussian, Inc.),
 the Gaussian(R) 98 system (copyright 1998, Gaussian, Inc.),
 the Gaussian(R) 94 system (copyright 1995, Gaussian, Inc.),
 the Gaussian 92(TM) system (copyright 1992, Gaussian, Inc.),
 the Gaussian 90(TM) system (copyright 1990, Gaussian, Inc.),
 the Gaussian 88(TM) system (copyright 1988, Gaussian, Inc.),
 the Gaussian 86(TM) system (copyright 1986, Carnegie Mellon
 University), and the Gaussian 82(TM) system (copyright 1983,
 Carnegie Mellon University). Gaussian is a federally registered
 trademark of Gaussian, Inc.
  
 This software contains proprietary and confidential information,
 including trade secrets, belonging to Gaussian, Inc.
  
 This software is provided under written license and may be
 used, copied, transmitted, or stored only in accord with that
 written license.
  
 The following legend is applicable only to US Government
 contracts under FAR:
  
                    RESTRICTED RIGHTS LEGEND
  
 Use, reproduction and disclosure by the US Government is
 subject to restrictions as set forth in subparagraphs (a)
 and (c) of the Commercial Computer Software - Restricted
 Rights clause in FAR 52.227-19.
  
 Gaussian, Inc.
 340 Quinnipiac St., Bldg. 40, Wallingford CT 06492
  
  
 ---------------------------------------------------------------
 Warning -- This program may not be used in any manner that
 competes with the business of Gaussian, Inc. or will provide
 assistance to any competitor of Gaussian, Inc.  The licensee
 of this program is prohibited from giving any competitor of
 Gaussian, Inc. access to this program.  By using this program,
 the user acknowledges that Gaussian, Inc. is engaged in the
 business of creating and licensing software in the field of
 computational chemistry and represents and warrants to the
 licensee that it is not a competitor of Gaussian, Inc. and that
 it will not use this program in any manner prohibited above.
 ---------------------------------------------------------------
  

 Cite this work as:
 Gaussian Development Version, Revision I.03+,
 M. J. Frisch, G. W. Trucks, H. B. Schlegel, G. E. Scuseria, 
 M. A. Robb, J. R. Cheeseman, G. Scalmani, V. Barone, B. Mennucci, 
 G. A. Petersson, H. Nakatsuji, M. Caricato, X. Li, H. P. Hratchian, 
 J. Bloino, B. G. Janesko, A. F. Izmaylov, A. Marenich, F. Lipparini, 
 G. Zheng, J. L. Sonnenberg, W. Liang, M. Hada, M. Ehara, K. Toyota, 
 R. Fukuda, J. Hasegawa, M. Ishida, T. Nakajima, Y. Honda, O. Kitao, 
 H. Nakai, T. Vreven, K. Throssell, J. A. Montgomery, Jr., 
 J. E. Peralta, F. Ogliaro, M. Bearpark, J. J. Heyd, E. Brothers, 
 K. N. Kudin, V. N. Staroverov, T. Keith, R. Kobayashi, J. Normand, 
 K. Raghavachari, A. Rendell, J. C. Burant, S. S. Iyengar, J. Tomasi, 
 M. Cossi, N. Rega, J. M. Millam, M. Klene, J. E. Knox, J. B. Cross, 
 V. Bakken, C. Adamo, J. Jaramillo, R. Gomperts, R. E. Stratmann, 
 O. Yazyev, A. J. Austin, R. Cammi, C. Pomelli, J. W. Ochterski, 
 R. L. Martin, K. Morokuma, V. G. Zakrzewski, G. A. Voth, 
 P. Salvador, J. J. Dannenberg, S. Dapprich, P. V. Parandekar, 
 N. J. Mayhall, A. D. Daniels, O. Farkas, J. B. Foresman, 
 J. V. Ortiz, J. Cioslowski, and D. J. Fox, 
 Gaussian, Inc., Wallingford CT, 2014.
 
 *******************************************
 Gaussian DV:  ES64L-GDVRevI.03+  2-May-2015
                  2-Oct-2015 
 *******************************************
 --------------------------------
 #p rohf/6-31G nosymm Field=X-100
 --------------------------------
 1/38=1,172=1/1;
 2/12=2,15=1,17=6,18=5,40=1/2;
 3/5=1,6=6,11=2,14=1,15=-100,25=1,30=1,116=101/1,2,3;
 4//1;
 5/5=2,38=5/2;
 6/7=2,8=2,9=2,10=2,28=1/1;
 99/5=1,9=1/99;
 Leave Link    1 at Fri Oct  2 16:11:53 2015, MaxMem=           0 cpu:               0.0 elap:               0.0
 (Enter /home/gauss/gdvi03p/gdv/l101.exe)
 -----------------------
 S-Propylene Oxide 6-31G
 -----------------------
 Symbolic Z-matrix:
 Charge =  1 Multiplicity = 2
 C                     0.15213  -0.0358    0.4858 
 C                    -1.03947   0.61594  -0.06125 
 C                     1.50714   0.09781  -0.14846 
 O                    -0.82822  -0.78825  -0.23943 
 H                     0.15373  -0.24926   1.55214 
 H                    -1.86318   0.88192   0.59333 
 H                    -0.94981   1.21421  -0.96277 
 H                     2.07681  -0.82619  -0.03667 
 H                     2.07447   0.90179   0.32511 
 H                     1.4149    0.31585  -1.21222 
 
 ITRead=  0  0  0  0  0  0  0  0  0  0
 MicOpt= -1 -1 -1 -1 -1 -1 -1 -1 -1 -1
 NAtoms=     10 NQM=       10 NQMF=       0 NMMI=      0 NMMIF=      0
                NMic=       0 NMicF=      0.
                    Isotopes and Nuclear Properties:
 (Nuclear quadrupole moments (NQMom) in fm**2, nuclear magnetic moments (NMagM)
  in nuclear magnetons)

  Atom         1           2           3           4           5           6           7           8           9          10
 IAtWgt=          12          12          12          16           1           1           1           1           1           1
 AtmWgt=  12.0000000  12.0000000  12.0000000  15.9949146   1.0078250   1.0078250   1.0078250   1.0078250   1.0078250   1.0078250
 NucSpn=           0           0           0           0           1           1           1           1           1           1
 AtZEff=   0.0000000   0.0000000   0.0000000   0.0000000   0.0000000   0.0000000   0.0000000   0.0000000   0.0000000   0.0000000
 NQMom=    0.0000000   0.0000000   0.0000000   0.0000000   0.0000000   0.0000000   0.0000000   0.0000000   0.0000000   0.0000000
 NMagM=    0.0000000   0.0000000   0.0000000   0.0000000   2.7928460   2.7928460   2.7928460   2.7928460   2.7928460   2.7928460
 AtZNuc=   6.0000000   6.0000000   6.0000000   8.0000000   1.0000000   1.0000000   1.0000000   1.0000000   1.0000000   1.0000000
 Leave Link  101 at Fri Oct  2 16:11:54 2015, MaxMem=    33554432 cpu:               0.1 elap:               0.1
 (Enter /home/gauss/gdvi03p/gdv/l202.exe)
                          Input orientation:                          
 ---------------------------------------------------------------------
 Center     Atomic      Atomic             Coordinates (Angstroms)
 Number     Number       Type             X           Y           Z
 ---------------------------------------------------------------------
      1          6           0        0.152133   -0.035800    0.485797
      2          6           0       -1.039475    0.615938   -0.061249
      3          6           0        1.507144    0.097806   -0.148460
      4          8           0       -0.828215   -0.788248   -0.239431
      5          1           0        0.153725   -0.249258    1.552136
      6          1           0       -1.863178    0.881921    0.593333
      7          1           0       -0.949807    1.214210   -0.962771
      8          1           0        2.076806   -0.826189   -0.036671
      9          1           0        2.074465    0.901788    0.325106
     10          1           0        1.414895    0.315852   -1.212218
 ---------------------------------------------------------------------
                    Distance matrix (angstroms):
                    1          2          3          4          5
     1  C    0.000000
     2  C    1.464224   0.000000
     3  C    1.502061   2.600257   0.000000
     4  O    1.432905   1.431125   2.499454   0.000000
     5  H    1.087495   2.185246   2.200960   2.112919   0.000000
     6  H    2.217037   1.085224   3.538950   2.134036   2.503351
     7  H    2.207973   1.085685   2.818877   2.132567   3.111957
     8  H    2.145240   3.433881   1.091228   2.912336   2.560351
     9  H    2.144820   3.150810   1.092019   3.405947   2.553380
    10  H    2.145107   2.727400   1.089787   2.682703   3.090559
                    6          7          8          9         10
     6  H    0.000000
     7  H    1.834699   0.000000
     8  H    4.340279   3.765803   0.000000
     9  H    3.946818   3.301887   1.765444   0.000000
    10  H    3.784998   2.541867   1.767567   1.772489   0.000000
 Symmetry turned off by external request.
 Stoichiometry    C3H6O(1+,2)
 Framework group  C1[X(C3H6O)]
 Deg. of freedom    24
 Full point group                 C1      NOp   1
 Rotational constants (GHZ):     18.2269979      6.6669563      5.9403328
 Leave Link  202 at Fri Oct  2 16:11:54 2015, MaxMem=    33554432 cpu:               0.0 elap:               0.0
 (Enter /home/gauss/gdvi03p/gdv/l301.exe)
 Standard basis: 6-31G (6D, 7F)
 Ernie: Thresh=  0.10000D-02 Tol=  0.10000D-05 Strict=F.
 The following finite field(s) will be applied:
 An electric field of             -0.0100  0.0000  0.0000
    48 basis functions,   112 primitive gaussians,    48 cartesian basis functions
    16 alpha electrons       15 beta electrons
       nuclear repulsion energy       124.7885346707 Hartrees.
 IExCor=    0 DFT=F Ex=HF Corr=None ExCW=0 ScaHFX=  1.000000
 ScaDFX=  1.000000  1.000000  1.000000  1.000000 ScalE2=  1.000000  1.000000
 IRadAn=      0 IRanWt=     -1 IRanGd=            0 ICorTp=0 IEmpDi=  4
 NAtoms=   10 NActive=   10 NUniq=   10 SFac= 1.00D+00 NAtFMM=   60 NAOKFM=F Big=F
 Integral buffers will be    131072 words long.
 Raffenetti 2 integral format.
 Two-electron integral symmetry is turned off.
 Leave Link  301 at Fri Oct  2 16:11:54 2015, MaxMem=    33554432 cpu:               0.0 elap:               0.1
 (Enter /home/gauss/gdvi03p/gdv/l302.exe)
 NPDir=0 NMtPBC=     1 NCelOv=     1 NCel=       1 NClECP=     1 NCelD=      1
         NCelK=      1 NCelE2=     1 NClLst=     1 CellRange=     0.0.
 One-electron integrals computed using PRISM.
 One-electron integral symmetry used in STVInt
 NBasis=    48 RedAO= T EigKep=  5.28D-03  NBF=    48
 NBsUse=    48 1.00D-06 EigRej= -1.00D+00 NBFU=    48
 Leave Link  302 at Fri Oct  2 16:11:54 2015, MaxMem=    33554432 cpu:               0.1 elap:               0.1
 (Enter /home/gauss/gdvi03p/gdv/l303.exe)
 DipDrv:  MaxL=1.
 The nuclear repulsion energy is now       124.7885347085 hartrees.
 Leave Link  303 at Fri Oct  2 16:11:54 2015, MaxMem=    33554432 cpu:               0.0 elap:               0.0
 (Enter /home/gauss/gdvi03p/gdv/l401.exe)
 ExpMin= 1.61D-01 ExpMax= 5.48D+03 ExpMxC= 8.25D+02 IAcc=1 IRadAn=         1 AccDes= 0.00D+00
 Harris functional with IExCor=  205 and IRadAn=       1 diagonalized for initial guess.
 HarFok:  IExCor=  205 AccDes= 0.00D+00 IRadAn=         1 IDoV= 1 UseB2=F ITyADJ=14
 ICtDFT=  3500011 ScaDFX=  1.000000  1.000000  1.000000  1.000000
 FoFCou: FMM=F IPFlag=           0 FMFlag=      100000 FMFlg1=           0
         NFxFlg=           0 DoJE=T BraDBF=F KetDBF=T FulRan=T
         wScrn=  0.000000 ICntrl=       500 IOpCl=  0 I1Cent=   200000004 NGrid=           0
         NMat0=    1 NMatS0=      1 NMatT0=    0 NMatD0=    1 NMtDS0=    0 NMtDT0=    0
 Symmetry not used in FoFCou.
 Harris En= -191.763082101860    
 JPrj=0 DoOrth=F DoCkMO=F.
 Leave Link  401 at Fri Oct  2 16:11:54 2015, MaxMem=    33554432 cpu:               0.2 elap:               0.2
 (Enter /home/gauss/gdvi03p/gdv/l502.exe)
 Keep R1 and R2 ints in memory in canonical form, NReq=2213710.
 FoFCou: FMM=F IPFlag=           0 FMFlag=           0 FMFlg1=           0
         NFxFlg=           0 DoJE=F BraDBF=F KetDBF=F FulRan=T
         wScrn=  0.000000 ICntrl=       600 IOpCl=  0 I1Cent=           0 NGrid=           0
         NMat0=    1 NMatS0=   1176 NMatT0=    0 NMatD0=    1 NMtDS0=    0 NMtDT0=    0
 Symmetry not used in FoFCou.
 Two-electron integral symmetry not used.
 Restricted open shell SCF:
 Using DIIS extrapolation, IDIIS=  1040.
 NGot=    33554432 LenX=    32164662 LenY=    32161917
 Requested convergence on RMS density matrix=1.00D-08 within 128 cycles.
 Requested convergence on MAX density matrix=1.00D-06.
 Requested convergence on             energy=1.00D-06.
 No special actions if energy rises.

 Cycle   1  Pass 1  IDiag  1:
 E= -191.323288583505    
 DIIS: error= 5.70D-02 at cycle   1 NSaved=   1.
 NSaved= 1 IEnMin= 1 EnMin= -191.323288583505     IErMin= 1 ErrMin= 5.70D-02
 ErrMax= 5.70D-02  0.00D+00 EMaxC= 1.00D-01 BMatC= 1.79D-01 BMatP= 1.79D-01
 IDIUse=3 WtCom= 4.30D-01 WtEn= 5.70D-01
 Coeff-Com:  0.100D+01
 Coeff-En:   0.100D+01
 Coeff:      0.100D+01
 Gap=     0.446 Goal=   None    Shift=    0.000
 GapD=    0.446 DampG=2.000 DampE=0.500 DampFc=1.0000 IDamp=-1.
 RMSDP=1.24D-02 MaxDP=1.03D-01              OVMax= 1.37D-01

 Cycle   2  Pass 1  IDiag  1:
 E= -191.415964797706     Delta-E=       -0.092676214202 Rises=F Damp=F
 DIIS: error= 3.46D-02 at cycle   2 NSaved=   2.
 NSaved= 2 IEnMin= 2 EnMin= -191.415964797706     IErMin= 2 ErrMin= 3.46D-02
 ErrMax= 3.46D-02  0.00D+00 EMaxC= 1.00D-01 BMatC= 5.17D-02 BMatP= 1.79D-01
 IDIUse=3 WtCom= 6.54D-01 WtEn= 3.46D-01
 Coeff-Com:  0.324D+00 0.676D+00
 Coeff-En:   0.993D-01 0.901D+00
 Coeff:      0.246D+00 0.754D+00
 Gap=     0.354 Goal=   None    Shift=    0.000
 RMSDP=6.40D-03 MaxDP=7.87D-02 DE=-9.27D-02 OVMax= 1.02D-01

 Cycle   3  Pass 1  IDiag  1:
 E= -191.463813775818     Delta-E=       -0.047848978112 Rises=F Damp=F
 DIIS: error= 2.35D-02 at cycle   3 NSaved=   3.
 NSaved= 3 IEnMin= 3 EnMin= -191.463813775818     IErMin= 3 ErrMin= 2.35D-02
 ErrMax= 2.35D-02  0.00D+00 EMaxC= 1.00D-01 BMatC= 1.50D-02 BMatP= 5.17D-02
 IDIUse=3 WtCom= 7.65D-01 WtEn= 2.35D-01
 Coeff-Com:  0.237D-01 0.354D+00 0.622D+00
 Coeff-En:   0.000D+00 0.000D+00 0.100D+01
 Coeff:      0.181D-01 0.271D+00 0.711D+00
 Gap=     0.373 Goal=   None    Shift=    0.000
 RMSDP=3.09D-03 MaxDP=4.13D-02 DE=-4.78D-02 OVMax= 5.46D-02

 Cycle   4  Pass 1  IDiag  1:
 E= -191.475625858076     Delta-E=       -0.011812082258 Rises=F Damp=F
 DIIS: error= 2.57D-03 at cycle   4 NSaved=   4.
 NSaved= 4 IEnMin= 4 EnMin= -191.475625858076     IErMin= 4 ErrMin= 2.57D-03
 ErrMax= 2.57D-03  0.00D+00 EMaxC= 1.00D-01 BMatC= 3.12D-04 BMatP= 1.50D-02
 IDIUse=3 WtCom= 9.74D-01 WtEn= 2.57D-02
 Coeff-Com: -0.127D-01 0.366D-01 0.158D+00 0.818D+00
 Coeff-En:   0.000D+00 0.000D+00 0.000D+00 0.100D+01
 Coeff:     -0.124D-01 0.357D-01 0.154D+00 0.823D+00
 Gap=     0.366 Goal=   None    Shift=    0.000
 RMSDP=1.09D-03 MaxDP=1.34D-02 DE=-1.18D-02 OVMax= 1.69D-02

 Cycle   5  Pass 1  IDiag  1:
 E= -191.476991743527     Delta-E=       -0.001365885451 Rises=F Damp=F
 DIIS: error= 2.38D-03 at cycle   5 NSaved=   5.
 NSaved= 5 IEnMin= 5 EnMin= -191.476991743527     IErMin= 5 ErrMin= 2.38D-03
 ErrMax= 2.38D-03  0.00D+00 EMaxC= 1.00D-01 BMatC= 1.43D-04 BMatP= 3.12D-04
 IDIUse=3 WtCom= 9.76D-01 WtEn= 2.38D-02
 Coeff-Com:  0.385D-03-0.113D-01-0.105D+00 0.450D-01 0.107D+01
 Coeff-En:   0.000D+00 0.000D+00 0.000D+00 0.000D+00 0.100D+01
 Coeff:      0.376D-03-0.111D-01-0.103D+00 0.439D-01 0.107D+01
 Gap=     0.367 Goal=   None    Shift=    0.000
 RMSDP=6.13D-04 MaxDP=7.43D-03 DE=-1.37D-03 OVMax= 9.07D-03

 Cycle   6  Pass 1  IDiag  1:
 E= -191.477402242512     Delta-E=       -0.000410498985 Rises=F Damp=F
 DIIS: error= 5.04D-04 at cycle   6 NSaved=   6.
 NSaved= 6 IEnMin= 6 EnMin= -191.477402242512     IErMin= 6 ErrMin= 5.04D-04
 ErrMax= 5.04D-04  0.00D+00 EMaxC= 1.00D-01 BMatC= 1.40D-05 BMatP= 1.43D-04
 IDIUse=3 WtCom= 9.95D-01 WtEn= 5.04D-03
 Coeff-Com:  0.458D-02-0.707D-02-0.691D-01-0.200D+00 0.246D+00 0.103D+01
 Coeff-En:   0.000D+00 0.000D+00 0.000D+00 0.000D+00 0.000D+00 0.100D+01
 Coeff:      0.455D-02-0.703D-02-0.688D-01-0.199D+00 0.245D+00 0.103D+01
 Gap=     0.368 Goal=   None    Shift=    0.000
 RMSDP=2.84D-04 MaxDP=2.59D-03 DE=-4.10D-04 OVMax= 3.06D-03

 Cycle   7  Pass 1  IDiag  1:
 E= -191.477469654435     Delta-E=       -0.000067411923 Rises=F Damp=F
 DIIS: error= 2.27D-04 at cycle   7 NSaved=   7.
 NSaved= 7 IEnMin= 7 EnMin= -191.477469654435     IErMin= 7 ErrMin= 2.27D-04
 ErrMax= 2.27D-04  0.00D+00 EMaxC= 1.00D-01 BMatC= 2.27D-06 BMatP= 1.40D-05
 IDIUse=3 WtCom= 9.98D-01 WtEn= 2.27D-03
 Coeff-Com: -0.657D-03 0.212D-02 0.255D-01 0.241D-01-0.117D+00 0.424D-01
 Coeff-Com:  0.102D+01
 Coeff-En:   0.000D+00 0.000D+00 0.000D+00 0.000D+00 0.000D+00 0.000D+00
 Coeff-En:   0.100D+01
 Coeff:     -0.656D-03 0.212D-02 0.255D-01 0.241D-01-0.116D+00 0.423D-01
 Coeff:      0.102D+01
 Gap=     0.368 Goal=   None    Shift=    0.000
 RMSDP=8.89D-05 MaxDP=1.03D-03 DE=-6.74D-05 OVMax= 9.86D-04

 Cycle   8  Pass 1  IDiag  1:
 E= -191.477487140108     Delta-E=       -0.000017485673 Rises=F Damp=F
 DIIS: error= 8.62D-05 at cycle   8 NSaved=   8.
 NSaved= 8 IEnMin= 8 EnMin= -191.477487140108     IErMin= 8 ErrMin= 8.62D-05
 ErrMax= 8.62D-05  0.00D+00 EMaxC= 1.00D-01 BMatC= 2.93D-07 BMatP= 2.27D-06
 IDIUse=1 WtCom= 1.00D+00 WtEn= 0.00D+00
 Coeff-Com: -0.550D-03 0.121D-02 0.113D-01 0.240D-01-0.434D-01-0.634D-01
 Coeff-Com:  0.221D+00 0.850D+00
 Coeff:     -0.550D-03 0.121D-02 0.113D-01 0.240D-01-0.434D-01-0.634D-01
 Coeff:      0.221D+00 0.850D+00
 Gap=     0.368 Goal=   None    Shift=    0.000
 RMSDP=5.49D-05 MaxDP=8.11D-04 DE=-1.75D-05 OVMax= 4.16D-04

 Cycle   9  Pass 1  IDiag  1:
 E= -191.477496799849     Delta-E=       -0.000009659741 Rises=F Damp=F
 DIIS: error= 7.63D-05 at cycle   9 NSaved=   9.
 NSaved= 9 IEnMin= 9 EnMin= -191.477496799849     IErMin= 9 ErrMin= 7.63D-05
 ErrMax= 7.63D-05  0.00D+00 EMaxC= 1.00D-01 BMatC= 1.87D-07 BMatP= 2.93D-07
 IDIUse=1 WtCom= 1.00D+00 WtEn= 0.00D+00
 Coeff-Com:  0.225D-03-0.193D-03-0.784D-02-0.545D-02 0.256D-01-0.332D-01
 Coeff-Com: -0.312D+00-0.794D-01 0.141D+01
 Coeff:      0.225D-03-0.193D-03-0.784D-02-0.545D-02 0.256D-01-0.332D-01
 Coeff:     -0.312D+00-0.794D-01 0.141D+01
 Gap=     0.368 Goal=   None    Shift=    0.000
 RMSDP=8.64D-05 MaxDP=1.43D-03 DE=-9.66D-06 OVMax= 3.14D-04

 Cycle  10  Pass 1  IDiag  1:
 E= -191.477510353987     Delta-E=       -0.000013554138 Rises=F Damp=F
 DIIS: error= 5.55D-05 at cycle  10 NSaved=  10.
 NSaved=10 IEnMin=10 EnMin= -191.477510353987     IErMin=10 ErrMin= 5.55D-05
 ErrMax= 5.55D-05  0.00D+00 EMaxC= 1.00D-01 BMatC= 8.93D-08 BMatP= 1.87D-07
 IDIUse=1 WtCom= 1.00D+00 WtEn= 0.00D+00
 Coeff-Com:  0.193D-03-0.123D-03-0.494D-02-0.569D-02 0.180D-01-0.188D-01
 Coeff-Com: -0.162D+00-0.456D+00 0.724D-01 0.156D+01
 Coeff:      0.193D-03-0.123D-03-0.494D-02-0.569D-02 0.180D-01-0.188D-01
 Coeff:     -0.162D+00-0.456D+00 0.724D-01 0.156D+01
 Gap=     0.368 Goal=   None    Shift=    0.000
 RMSDP=1.13D-04 MaxDP=1.87D-03 DE=-1.36D-05 OVMax= 3.36D-04

 Cycle  11  Pass 1  IDiag  1:
 E= -191.477521972008     Delta-E=       -0.000011618021 Rises=F Damp=F
 DIIS: error= 2.66D-05 at cycle  11 NSaved=  11.
 NSaved=11 IEnMin=11 EnMin= -191.477521972008     IErMin=11 ErrMin= 2.66D-05
 ErrMax= 2.66D-05  0.00D+00 EMaxC= 1.00D-01 BMatC= 2.27D-08 BMatP= 8.93D-08
 IDIUse=1 WtCom= 1.00D+00 WtEn= 0.00D+00
 Coeff-Com: -0.156D-03 0.217D-03 0.392D-02 0.591D-02-0.907D-02-0.476D-02
 Coeff-Com:  0.112D+00 0.476D-01-0.620D+00-0.230D-01 0.149D+01
 Coeff:     -0.156D-03 0.217D-03 0.392D-02 0.591D-02-0.907D-02-0.476D-02
 Coeff:      0.112D+00 0.476D-01-0.620D+00-0.230D-01 0.149D+01
 Gap=     0.368 Goal=   None    Shift=    0.000
 RMSDP=8.51D-05 MaxDP=1.44D-03 DE=-1.16D-05 OVMax= 2.28D-04

 Cycle  12  Pass 1  IDiag  1:
 E= -191.477526102962     Delta-E=       -0.000004130953 Rises=F Damp=F
 DIIS: error= 9.72D-06 at cycle  12 NSaved=  12.
 NSaved=12 IEnMin=12 EnMin= -191.477526102962     IErMin=12 ErrMin= 9.72D-06
 ErrMax= 9.72D-06  0.00D+00 EMaxC= 1.00D-01 BMatC= 3.78D-09 BMatP= 2.27D-08
 IDIUse=1 WtCom= 1.00D+00 WtEn= 0.00D+00
 Coeff-Com: -0.360D-04-0.341D-04 0.888D-03 0.860D-03-0.224D-02 0.775D-02
 Coeff-Com:  0.339D-01 0.631D-01-0.105D+00-0.295D+00 0.273D+00 0.102D+01
 Coeff:     -0.360D-04-0.341D-04 0.888D-03 0.860D-03-0.224D-02 0.775D-02
 Coeff:      0.339D-01 0.631D-01-0.105D+00-0.295D+00 0.273D+00 0.102D+01
 Gap=     0.368 Goal=   None    Shift=    0.000
 RMSDP=2.88D-05 MaxDP=5.08D-04 DE=-4.13D-06 OVMax= 7.26D-05

 Cycle  13  Pass 1  IDiag  1:
 E= -191.477526575911     Delta-E=       -0.000000472949 Rises=F Damp=F
 DIIS: error= 3.69D-06 at cycle  13 NSaved=  13.
 NSaved=13 IEnMin=13 EnMin= -191.477526575911     IErMin=13 ErrMin= 3.69D-06
 ErrMax= 3.69D-06  0.00D+00 EMaxC= 1.00D-01 BMatC= 6.88D-10 BMatP= 3.78D-09
 IDIUse=1 WtCom= 1.00D+00 WtEn= 0.00D+00
 Coeff-Com:  0.303D-04-0.723D-04-0.780D-03-0.142D-02 0.191D-02 0.344D-02
 Coeff-Com: -0.222D-01-0.896D-02 0.112D+00-0.460D-01-0.251D+00 0.193D+00
 Coeff-Com:  0.102D+01
 Coeff:      0.303D-04-0.723D-04-0.780D-03-0.142D-02 0.191D-02 0.344D-02
 Coeff:     -0.222D-01-0.896D-02 0.112D+00-0.460D-01-0.251D+00 0.193D+00
 Coeff:      0.102D+01
 Gap=     0.368 Goal=   None    Shift=    0.000
 RMSDP=1.08D-05 MaxDP=2.07D-04 DE=-4.73D-07 OVMax= 2.99D-05

 Cycle  14  Pass 1  IDiag  1:
 E= -191.477526638316     Delta-E=       -0.000000062404 Rises=F Damp=F
 DIIS: error= 2.11D-06 at cycle  14 NSaved=  14.
 NSaved=14 IEnMin=14 EnMin= -191.477526638316     IErMin=14 ErrMin= 2.11D-06
 ErrMax= 2.11D-06  0.00D+00 EMaxC= 1.00D-01 BMatC= 1.45D-10 BMatP= 6.88D-10
 IDIUse=1 WtCom= 1.00D+00 WtEn= 0.00D+00
 Coeff-Com: -0.360D-05 0.248D-04 0.965D-04 0.198D-03-0.232D-03-0.216D-02
 Coeff-Com: -0.172D-02-0.137D-02 0.619D-03 0.245D-01-0.438D-02-0.121D+00
 Coeff-Com: -0.842D-01 0.119D+01
 Coeff:     -0.360D-05 0.248D-04 0.965D-04 0.198D-03-0.232D-03-0.216D-02
 Coeff:     -0.172D-02-0.137D-02 0.619D-03 0.245D-01-0.438D-02-0.121D+00
 Coeff:     -0.842D-01 0.119D+01
 Gap=     0.368 Goal=   None    Shift=    0.000
 RMSDP=3.06D-06 MaxDP=6.84D-05 DE=-6.24D-08 OVMax= 1.32D-05

 Cycle  15  Pass 1  IDiag  1:
 E= -191.477526648441     Delta-E=       -0.000000010126 Rises=F Damp=F
 DIIS: error= 1.46D-06 at cycle  15 NSaved=  15.
 NSaved=15 IEnMin=15 EnMin= -191.477526648441     IErMin=15 ErrMin= 1.46D-06
 ErrMax= 1.46D-06  0.00D+00 EMaxC= 1.00D-01 BMatC= 6.29D-11 BMatP= 1.45D-10
 IDIUse=1 WtCom= 1.00D+00 WtEn= 0.00D+00
 Coeff-Com: -0.996D-05 0.254D-04 0.221D-03 0.428D-03-0.453D-03-0.782D-03
 Coeff-Com:  0.683D-02 0.343D-02-0.374D-01 0.112D-01 0.908D-01-0.486D-01
 Coeff-Com: -0.341D+00-0.168D+00 0.148D+01
 Coeff:     -0.996D-05 0.254D-04 0.221D-03 0.428D-03-0.453D-03-0.782D-03
 Coeff:      0.683D-02 0.343D-02-0.374D-01 0.112D-01 0.908D-01-0.486D-01
 Coeff:     -0.341D+00-0.168D+00 0.148D+01
 Gap=     0.368 Goal=   None    Shift=    0.000
 RMSDP=1.91D-06 MaxDP=4.41D-05 DE=-1.01D-08 OVMax= 1.20D-05

 Cycle  16  Pass 1  IDiag  1:
 E= -191.477526653932     Delta-E=       -0.000000005491 Rises=F Damp=F
 DIIS: error= 9.48D-07 at cycle  16 NSaved=  16.
 NSaved=16 IEnMin=16 EnMin= -191.477526653932     IErMin=16 ErrMin= 9.48D-07
 ErrMax= 9.48D-07  0.00D+00 EMaxC= 1.00D-01 BMatC= 2.57D-11 BMatP= 6.29D-11
 IDIUse=1 WtCom= 1.00D+00 WtEn= 0.00D+00
 Coeff-Com:  0.209D-05-0.991D-05-0.720D-04-0.129D-03 0.123D-03 0.136D-02
 Coeff-Com:  0.949D-03 0.195D-02 0.424D-03-0.175D-01 0.322D-03 0.752D-01
 Coeff-Com:  0.845D-01-0.604D+00-0.223D+00 0.168D+01
 Coeff:      0.209D-05-0.991D-05-0.720D-04-0.129D-03 0.123D-03 0.136D-02
 Coeff:      0.949D-03 0.195D-02 0.424D-03-0.175D-01 0.322D-03 0.752D-01
 Coeff:      0.845D-01-0.604D+00-0.223D+00 0.168D+01
 Gap=     0.368 Goal=   None    Shift=    0.000
 RMSDP=1.67D-06 MaxDP=3.59D-05 DE=-5.49D-09 OVMax= 1.24D-05

 Cycle  17  Pass 1  IDiag  1:
 E= -191.477526656255     Delta-E=       -0.000000002323 Rises=F Damp=F
 DIIS: error= 2.23D-07 at cycle  17 NSaved=  17.
 NSaved=17 IEnMin=17 EnMin= -191.477526656255     IErMin=17 ErrMin= 2.23D-07
 ErrMax= 2.23D-07  0.00D+00 EMaxC= 1.00D-01 BMatC= 3.52D-12 BMatP= 2.57D-11
 IDIUse=1 WtCom= 1.00D+00 WtEn= 0.00D+00
 Coeff-Com:  0.782D-06-0.169D-05-0.150D-04-0.328D-04-0.438D-04 0.111D-03
 Coeff-Com: -0.452D-03 0.117D-02 0.477D-02-0.720D-02-0.130D-01 0.229D-01
 Coeff-Com:  0.722D-01-0.594D-01-0.316D+00 0.249D+00 0.105D+01
 Coeff:      0.782D-06-0.169D-05-0.150D-04-0.328D-04-0.438D-04 0.111D-03
 Coeff:     -0.452D-03 0.117D-02 0.477D-02-0.720D-02-0.130D-01 0.229D-01
 Coeff:      0.722D-01-0.594D-01-0.316D+00 0.249D+00 0.105D+01
 Gap=     0.368 Goal=   None    Shift=    0.000
 RMSDP=4.57D-07 MaxDP=9.86D-06 DE=-2.32D-09 OVMax= 2.88D-06

 Cycle  18  Pass 1  IDiag  1:
 E= -191.477526656392     Delta-E=       -0.000000000137 Rises=F Damp=F
 DIIS: error= 7.86D-08 at cycle  18 NSaved=  18.
 NSaved=18 IEnMin=18 EnMin= -191.477526656392     IErMin=18 ErrMin= 7.86D-08
 ErrMax= 7.86D-08  0.00D+00 EMaxC= 1.00D-01 BMatC= 2.79D-13 BMatP= 3.52D-12
 IDIUse=1 WtCom= 1.00D+00 WtEn= 0.00D+00
 Coeff-Com: -0.223D-06 0.157D-05 0.810D-05 0.177D-04-0.204D-04-0.253D-03
 Coeff-Com: -0.366D-03-0.319D-03 0.781D-03 0.275D-02-0.144D-02-0.114D-01
 Coeff-Com: -0.915D-02 0.985D-01 0.221D-01-0.268D+00 0.644D-01 0.110D+01
 Coeff:     -0.223D-06 0.157D-05 0.810D-05 0.177D-04-0.204D-04-0.253D-03
 Coeff:     -0.366D-03-0.319D-03 0.781D-03 0.275D-02-0.144D-02-0.114D-01
 Coeff:     -0.915D-02 0.985D-01 0.221D-01-0.268D+00 0.644D-01 0.110D+01
 Gap=     0.368 Goal=   None    Shift=    0.000
 RMSDP=9.89D-08 MaxDP=1.80D-06 DE=-1.37D-10 OVMax= 7.87D-07

 Cycle  19  Pass 1  IDiag  1:
 E= -191.477526656399     Delta-E=       -0.000000000007 Rises=F Damp=F
 DIIS: error= 2.25D-08 at cycle  19 NSaved=  19.
 NSaved=19 IEnMin=19 EnMin= -191.477526656399     IErMin=19 ErrMin= 2.25D-08
 ErrMax= 2.25D-08  0.00D+00 EMaxC= 1.00D-01 BMatC= 4.15D-14 BMatP= 2.79D-13
 IDIUse=1 WtCom= 1.00D+00 WtEn= 0.00D+00
 Coeff-Com:  0.282D-07-0.124D-07-0.919D-06-0.942D-06 0.148D-04-0.256D-04
 Coeff-Com: -0.944D-04-0.263D-03 0.362D-04 0.125D-02 0.331D-03-0.394D-02
 Coeff-Com: -0.629D-02 0.237D-01 0.250D-01-0.673D-01-0.546D-01 0.207D+00
 Coeff-Com:  0.876D+00
 Coeff:      0.282D-07-0.124D-07-0.919D-06-0.942D-06 0.148D-04-0.256D-04
 Coeff:     -0.944D-04-0.263D-03 0.362D-04 0.125D-02 0.331D-03-0.394D-02
 Coeff:     -0.629D-02 0.237D-01 0.250D-01-0.673D-01-0.546D-01 0.207D+00
 Coeff:      0.876D+00
 Gap=     0.368 Goal=   None    Shift=    0.000
 RMSDP=4.42D-08 MaxDP=6.98D-07 DE=-6.82D-12 OVMax= 1.53D-07

 Cycle  20  Pass 1  IDiag  1:
 E= -191.477526656399     Delta-E=        0.000000000000 Rises=F Damp=F
 DIIS: error= 1.02D-08 at cycle  20 NSaved=  20.
 NSaved=20 IEnMin=20 EnMin= -191.477526656399     IErMin=20 ErrMin= 1.02D-08
 ErrMax= 1.02D-08  0.00D+00 EMaxC= 1.00D-01 BMatC= 4.54D-15 BMatP= 4.15D-14
 IDIUse=1 WtCom= 1.00D+00 WtEn= 0.00D+00
 Coeff-Com:  0.222D-07-0.150D-06-0.469D-06-0.185D-05 0.482D-05 0.187D-04
 Coeff-Com:  0.265D-04-0.287D-04-0.108D-03 0.714D-04 0.276D-03 0.178D-04
 Coeff-Com: -0.843D-03-0.230D-02 0.370D-02 0.654D-02-0.144D-01-0.529D-01
 Coeff-Com:  0.105D+00 0.955D+00
 Coeff:      0.222D-07-0.150D-06-0.469D-06-0.185D-05 0.482D-05 0.187D-04
 Coeff:      0.265D-04-0.287D-04-0.108D-03 0.714D-04 0.276D-03 0.178D-04
 Coeff:     -0.843D-03-0.230D-02 0.370D-02 0.654D-02-0.144D-01-0.529D-01
 Coeff:      0.105D+00 0.955D+00
 Gap=     0.368 Goal=   None    Shift=    0.000
 RMSDP=1.64D-08 MaxDP=2.83D-07 DE=-3.98D-13 OVMax= 5.68D-08

 Cycle  21  Pass 1  IDiag  1:
 E= -191.477526656400     Delta-E=       -0.000000000001 Rises=F Damp=F
 DIIS: error= 3.75D-09 at cycle  21 NSaved=  20.
 NSaved=20 IEnMin=20 EnMin= -191.477526656400     IErMin=20 ErrMin= 3.75D-09
 ErrMax= 3.75D-09  0.00D+00 EMaxC= 1.00D-01 BMatC= 5.16D-16 BMatP= 4.54D-15
 IDIUse=1 WtCom= 1.00D+00 WtEn= 0.00D+00
 Large coefficients: NSaved= 20 BigCof=    0.00 CofMax=   10.00 Det=-1.87D-15
 Inversion failed.  Reducing to 19 matrices.
 Large coefficients: NSaved= 19 BigCof=    0.00 CofMax=   10.00 Det=-1.95D-15
 Inversion failed.  Reducing to 18 matrices.
 Large coefficients: NSaved= 18 BigCof=    0.00 CofMax=   10.00 Det=-2.01D-15
 Inversion failed.  Reducing to 17 matrices.
 Large coefficients: NSaved= 17 BigCof=    0.00 CofMax=   10.00 Det=-2.08D-15
 Inversion failed.  Reducing to 16 matrices.
 Large coefficients: NSaved= 16 BigCof=    0.00 CofMax=   10.00 Det=-2.36D-15
 Inversion failed.  Reducing to 15 matrices.
 Coeff-Com: -0.176D-06 0.105D-04 0.849D-05-0.460D-04-0.304D-04 0.172D-03
 Coeff-Com:  0.327D-03-0.116D-02-0.156D-02 0.403D-02 0.453D-02-0.186D-01
 Coeff-Com: -0.988D-01 0.154D+00 0.957D+00
 Coeff:     -0.176D-06 0.105D-04 0.849D-05-0.460D-04-0.304D-04 0.172D-03
 Coeff:      0.327D-03-0.116D-02-0.156D-02 0.403D-02 0.453D-02-0.186D-01
 Coeff:     -0.988D-01 0.154D+00 0.957D+00
 Gap=     0.368 Goal=   None    Shift=    0.000
 RMSDP=4.22D-09 MaxDP=7.32D-08 DE=-7.39D-13 OVMax= 1.99D-08

 SCF Done:  E(ROHF) =  -191.477526656     A.U. after   21 cycles
            NFock= 21  Conv=0.42D-08     -V/T= 1.9978
 <Sx>= 0.0000 <Sy>= 0.0000 <Sz>= 0.5000 <S**2>= 0.7500 S= 0.5000
 <L.S>= 0.000000000000E+00
 KE= 1.919080294861D+02 PE=-6.899654895544D+02 EE= 1.817913987034D+02
 Annihilation of the first spin contaminant:
 S**2 before annihilation     0.7500,   after     0.7500
 Leave Link  502 at Fri Oct  2 16:11:54 2015, MaxMem=    33554432 cpu:               0.2 elap:               0.2
 (Enter /home/gauss/gdvi03p/gdv/l601.exe)
 Copying SCF densities to generalized density rwf, IOpCl= 0 IROHF=1.

 **********************************************************************

            Population analysis using the SCF density.

 **********************************************************************

 Alpha  occ. eigenvalues --  -21.00037 -11.57672 -11.57349 -11.42122  -1.78265
 Alpha  occ. eigenvalues --   -1.26510  -1.20127  -1.09316  -0.97641  -0.92740
 Alpha  occ. eigenvalues --   -0.88149  -0.80018  -0.77038  -0.73340  -0.70272
 Alpha  occ. eigenvalues --   -0.38014
 Alpha virt. eigenvalues --   -0.01227   0.01852   0.02018   0.05257   0.08568
 Alpha virt. eigenvalues --    0.11701   0.14091   0.16498   0.20374   0.25689
 Alpha virt. eigenvalues --    0.45157   0.52064   0.53193   0.56550   0.61227
 Alpha virt. eigenvalues --    0.63358   0.65759   0.75442   0.79949   0.82267
 Alpha virt. eigenvalues --    0.90212   0.92672   0.96741   0.99750   1.02351
 Alpha virt. eigenvalues --    1.05928   1.06705   1.07757   1.12970   1.33886
 Alpha virt. eigenvalues --    1.52459   1.69685
          Condensed to atoms (all electrons):
               1          2          3          4          5          6
     1  C    5.626794   0.154917   0.160907  -0.119551   0.377940  -0.027527
     2  C    0.154917   5.361019  -0.040439  -0.042965  -0.032437   0.372487
     3  C    0.160907  -0.040439   5.232390  -0.023811  -0.007936   0.000794
     4  O   -0.119551  -0.042965  -0.023811   8.360297  -0.019906  -0.013808
     5  H    0.377940  -0.032437  -0.007936  -0.019906   0.343978  -0.000210
     6  H   -0.027527   0.372487   0.000794  -0.013808  -0.000210   0.369451
     7  H   -0.026137   0.370852   0.001149  -0.014719   0.000613  -0.004620
     8  H   -0.041470   0.003867   0.384530  -0.000555  -0.002919  -0.000052
     9  H   -0.035277  -0.000704   0.380957   0.001805  -0.002439  -0.000007
    10  H   -0.049368  -0.002345   0.393739  -0.001672   0.002310   0.000119
               7          8          9         10
     1  C   -0.026137  -0.041470  -0.035277  -0.049368
     2  C    0.370852   0.003867  -0.000704  -0.002345
     3  C    0.001149   0.384530   0.380957   0.393739
     4  O   -0.014719  -0.000555   0.001805  -0.001672
     5  H    0.000613  -0.002919  -0.002439   0.002310
     6  H   -0.004620  -0.000052  -0.000007   0.000119
     7  H    0.342066  -0.000018   0.000185   0.001017
     8  H   -0.000018   0.402951  -0.011797  -0.020146
     9  H    0.000185  -0.011797   0.393356  -0.017621
    10  H    0.001017  -0.020146  -0.017621   0.472236
          Atomic-Atomic Spin Densities.
               1          2          3          4          5          6
     1  C    0.019463   0.004096   0.006248  -0.027039   0.005754   0.000997
     2  C    0.004096   0.013419   0.001177  -0.021978   0.000449   0.004283
     3  C    0.006248   0.001177   0.013050  -0.006094  -0.001685  -0.000180
     4  O   -0.027039  -0.021978  -0.006094   1.006192  -0.004420  -0.004672
     5  H    0.005754   0.000449  -0.001685  -0.004420   0.010192   0.000579
     6  H    0.000997   0.004283  -0.000180  -0.004672   0.000579   0.010863
     7  H    0.000870   0.005191   0.000493  -0.004227  -0.000150  -0.001620
     8  H   -0.000072  -0.000007  -0.000056   0.000062   0.000025   0.000001
     9  H   -0.000684  -0.000114   0.000143   0.000169   0.000241   0.000015
    10  H   -0.000783  -0.000268  -0.000415   0.001167   0.000064   0.000016
               7          8          9         10
     1  C    0.000870  -0.000072  -0.000684  -0.000783
     2  C    0.005191  -0.000007  -0.000114  -0.000268
     3  C    0.000493  -0.000056   0.000143  -0.000415
     4  O   -0.004227   0.000062   0.000169   0.001167
     5  H   -0.000150   0.000025   0.000241   0.000064
     6  H   -0.001620   0.000001   0.000015   0.000016
     7  H    0.008858  -0.000002  -0.000052  -0.000166
     8  H   -0.000002   0.000014   0.000041   0.000027
     9  H   -0.000052   0.000041   0.001948   0.000278
    10  H   -0.000166   0.000027   0.000278   0.000591
 Mulliken charges and spin densities:
               1          2
     1  C   -0.021228   0.008852
     2  C   -0.144254   0.006248
     3  C   -0.482278   0.012681
     4  O   -0.125114   0.939161
     5  H    0.341005   0.011051
     6  H    0.303374   0.010282
     7  H    0.329613   0.009195
     8  H    0.285608   0.000034
     9  H    0.291541   0.001985
    10  H    0.221732   0.000511
 Sum of Mulliken charges =   1.00000   1.00000
 Mulliken charges and spin densities with hydrogens summed into heavy atoms:
               1          2
     1  C    0.319778   0.019902
     2  C    0.488733   0.025725
     3  C    0.316603   0.015211
     4  O   -0.125114   0.939161
 Electronic spatial extent (au):  <R**2>=            253.1551
 Charge=              1.0000 electrons
 Dipole moment (field-independent basis, Debye):
    X=              0.0036    Y=              1.6440    Z=              0.9947  Tot=              1.9215
 Quadrupole moment (field-independent basis, Debye-Ang):
   XX=            -14.8408   YY=            -21.5163   ZZ=            -19.4602
   XY=             -2.3394   XZ=             -0.3771   YZ=             -1.3236
 Traceless Quadrupole moment (field-independent basis, Debye-Ang):
   XX=              3.7650   YY=             -2.9105   ZZ=             -0.8544
   XY=             -2.3394   XZ=             -0.3771   YZ=             -1.3236
 Octapole moment (field-independent basis, Debye-Ang**2):
  XXX=              1.5552  YYY=              0.9182  ZZZ=              1.4406  XYY=             -0.8899
  XXY=              3.6413  XXZ=              1.8104  XZZ=             -1.2693  YZZ=              0.4335
  YYZ=             -0.1453  XYZ=              0.9110
 Hexadecapole moment (field-independent basis, Debye-Ang**3):
 XXXX=           -166.0698 YYYY=            -61.6536 ZZZZ=            -39.1979 XXXY=             -2.8711
 XXXZ=             -3.0432 YYYX=             -2.7658 YYYZ=             -1.5874 ZZZX=              0.9839
 ZZZY=             -2.4740 XXYY=            -35.8960 XXZZ=            -38.5593 YYZZ=            -16.9492
 XXYZ=              1.6616 YYXZ=              1.0256 ZZXY=             -0.4975
 N-N= 1.247885347085D+02 E-N=-6.899654894925D+02  KE= 1.919080294861D+02
                          Isotropic Fermi Contact Couplings
        Atom                 a.u.       MegaHertz       Gauss      10(-4) cm-1
     1  C(13)              0.00026       0.29332       0.10466       0.09784
     2  C(13)              0.00010       0.11339       0.04046       0.03782
     3  C(13)              0.00684       7.69257       2.74490       2.56597
     4  O(17)              0.00016      -0.09447      -0.03371      -0.03151
     5  H(1)               0.00758      33.89052      12.09298      11.30466
     6  H(1)               0.00684      30.56163      10.90515      10.19426
     7  H(1)               0.00642      28.69318      10.23844       9.57101
     8  H(1)               0.00000       0.00991       0.00354       0.00331
     9  H(1)               0.00106       4.73579       1.68985       1.57969
    10  H(1)               0.00007       0.32954       0.11759       0.10992
 --------------------------------------------------------
       Center         ----  Spin Dipole Couplings  ----
                      3XX-RR        3YY-RR        3ZZ-RR
 --------------------------------------------------------
     1   Atom        0.011167     -0.021743      0.010576
     2   Atom       -0.033802      0.054151     -0.020349
     3   Atom        0.032067     -0.014623     -0.017444
     4   Atom       -0.426245     -1.717149      2.143394
     5   Atom       -0.004648     -0.011806      0.016454
     6   Atom       -0.002387      0.010676     -0.008289
     7   Atom       -0.013693      0.020956     -0.007263
     8   Atom        0.011270     -0.004953     -0.006317
     9   Atom        0.003962     -0.000683     -0.003279
    10   Atom        0.008362     -0.004865     -0.003498
 --------------------------------------------------------
                        XY            XZ            YZ
 --------------------------------------------------------
     1   Atom        0.042297      0.014533      0.019258
     2   Atom       -0.011890     -0.019498      0.006698
     3   Atom        0.016179     -0.006218     -0.001295
     4   Atom        0.547326     -2.460842     -0.904873
     5   Atom        0.004814      0.016655      0.006714
     6   Atom       -0.015609     -0.008068      0.011057
     7   Atom       -0.003834      0.001559     -0.013196
     8   Atom       -0.001609      0.001322     -0.000126
     9   Atom        0.005253      0.001856      0.002101
    10   Atom        0.008126     -0.006629     -0.003394
 --------------------------------------------------------


 ---------------------------------------------------------------------------------
              Anisotropic Spin Dipole Couplings in Principal Axis System
 ---------------------------------------------------------------------------------

       Atom             a.u.   MegaHertz   Gauss  10(-4) cm-1        Axes

              Baa    -0.0517    -6.940    -2.476    -2.315 -0.5314  0.8363 -0.1346
     1 C(13)  Bbb    -0.0010    -0.130    -0.046    -0.043 -0.4736 -0.1616  0.8658
              Bcc     0.0527     7.070     2.523     2.358  0.7024  0.5238  0.4820
 
              Baa    -0.0480    -6.447    -2.300    -2.150  0.8229  0.0587  0.5652
     2 C(13)  Bbb    -0.0088    -1.186    -0.423    -0.396 -0.5466 -0.1899  0.8156
              Bcc     0.0569     7.633     2.724     2.546 -0.1552  0.9800  0.1242
 
              Baa    -0.0199    -2.670    -0.953    -0.891 -0.3164  0.8884 -0.3326
     3 C(13)  Bbb    -0.0179    -2.408    -0.859    -0.803  0.0027  0.3514  0.9362
              Bcc     0.0378     5.079     1.812     1.694  0.9486  0.2953 -0.1136
 
              Baa    -1.9190   138.859    49.548    46.318  0.3317  0.8580  0.3921
     4 O(17)  Bbb    -1.9170   138.713    49.496    46.270  0.7942 -0.4783  0.3747
              Bcc     3.8360  -277.572   -99.045   -92.588 -0.5091 -0.1871  0.8401
 
              Baa    -0.0146    -7.811    -2.787    -2.606  0.7267 -0.6394 -0.2512
     5 H(1)   Bbb    -0.0127    -6.775    -2.418    -2.260  0.4952  0.7410 -0.4536
              Bcc     0.0273    14.587     5.205     4.866  0.4761  0.2052  0.8551
 
              Baa    -0.0139    -7.434    -2.653    -2.480  0.5394 -0.0358  0.8413
     6 H(1)   Bbb    -0.0125    -6.678    -2.383    -2.228  0.6622  0.6352 -0.3975
              Bcc     0.0264    14.112     5.036     4.707 -0.5201  0.7715  0.3664
 
              Baa    -0.0141    -7.534    -2.688    -2.513  0.9944  0.0855 -0.0615
     7 H(1)   Bbb    -0.0125    -6.654    -2.374    -2.219  0.0257  0.3696  0.9288
              Bcc     0.0266    14.187     5.062     4.732 -0.1022  0.9252 -0.3654
 
              Baa    -0.0064    -3.423    -1.221    -1.142 -0.0741  0.0046  0.9972
     8 H(1)   Bbb    -0.0051    -2.727    -0.973    -0.910  0.0975  0.9952  0.0026
              Bcc     0.0115     6.150     2.194     2.051  0.9925 -0.0975  0.0742
 
              Baa    -0.0047    -2.533    -0.904    -0.845 -0.2887  0.7068 -0.6459
     9 H(1)   Bbb    -0.0033    -1.752    -0.625    -0.584 -0.5153  0.4538  0.7270
              Bcc     0.0080     4.285     1.529     1.429  0.8069  0.5427  0.2332
 
              Baa    -0.0087    -4.667    -1.665    -1.557 -0.4009  0.9123  0.0837
    10 H(1)   Bbb    -0.0064    -3.439    -1.227    -1.147  0.3713  0.0783  0.9252
              Bcc     0.0152     8.106     2.892     2.704  0.8375  0.4020 -0.3701
 

 ---------------------------------------------------------------------------------

 No NMR shielding tensors so no spin-rotation constants.
 Leave Link  601 at Fri Oct  2 16:11:54 2015, MaxMem=    33554432 cpu:               0.2 elap:               0.2
 (Enter /home/gauss/gdvi03p/gdv/l9999.exe)
 Unable to Open any file for archive entry.
 1\1\GINC-MEDUSA\SP\ROHF\6-31G\C3H6O1(1+,2)\PLESTRAN\02-Oct-2015\0\\#p 
 rohf/6-31G nosymm Field=X-100\\S-Propylene Oxide 6-31G\\1,2\C,0,0.1521
 33,-0.0358,0.485797\C,0,-1.039475,0.615938,-0.061249\C,0,1.507144,0.09
 7806,-0.14846\O,0,-0.828215,-0.788248,-0.239431\H,0,0.153725,-0.249258
 ,1.552136\H,0,-1.863178,0.881921,0.593333\H,0,-0.949807,1.21421,-0.962
 771\H,0,2.076806,-0.826189,-0.036671\H,0,2.074465,0.901788,0.325106\H,
 0,1.414895,0.315852,-1.212218\\Version=ES64L-GDVRevI.03+\HF=-191.47752
 67\EFC=0.\RMSD=4.221e-09\Dipole=0.0014269,0.6468126,0.3913339\Quadrupo
 le=2.7991544,-2.1639123,-0.635242,-1.7392523,-0.2803981,-0.9840964\PG=
 C01 [X(C3H6O1)]\\@
 The archive entry for this job was punched.


 YOU CAN WIPE THE SLATE CLEAN, BUT YOU'LL STILL
 HAVE TO EAT A LITTLE CHALK DUST.
 Job cpu time:       0 days  0 hours  0 minutes  1.0 seconds.
 Elapsed time:       0 days  0 hours  0 minutes  0.9 seconds.
 File lengths (MBytes):  RWF=      5 Int=      0 D2E=      0 Chk=      1 Scr=      1
 Normal termination of Gaussian DV at Fri Oct  2 16:11:54 2015.
