 Entering Gaussian System, Link 0=gdv
 Input=propylene-oxide_sto3g_ROHF_field.com
 Output=propylene-oxide_sto3g_ROHF_field.log
 Initial command:
 /home/gauss/gdvi03p/gdv/l1.exe "/home/GauScr/Gau-21710.inp" -scrdir="/home/GauScr/"
 Entering Link 1 = /home/gauss/gdvi03p/gdv/l1.exe PID=     21711.
  
 Copyright (c) 1988,1990,1992,1993,1995,1998,2003,2009,2015,
            Gaussian, Inc.  All Rights Reserved.
  
 This is the private, development version of
 the Gaussian(R) DV system of programs. It is based on
 the Gaussian(R) 09 system (copyright 2009, Gaussian, Inc.),
 the Gaussian(R) 03 system (copyright 2003, Gaussian, Inc.),
 the Gaussian(R) 98 system (copyright 1998, Gaussian, Inc.),
 the Gaussian(R) 94 system (copyright 1995, Gaussian, Inc.),
 the Gaussian 92(TM) system (copyright 1992, Gaussian, Inc.),
 the Gaussian 90(TM) system (copyright 1990, Gaussian, Inc.),
 the Gaussian 88(TM) system (copyright 1988, Gaussian, Inc.),
 the Gaussian 86(TM) system (copyright 1986, Carnegie Mellon
 University), and the Gaussian 82(TM) system (copyright 1983,
 Carnegie Mellon University). Gaussian is a federally registered
 trademark of Gaussian, Inc.
  
 This software contains proprietary and confidential information,
 including trade secrets, belonging to Gaussian, Inc.
  
 This software is provided under written license and may be
 used, copied, transmitted, or stored only in accord with that
 written license.
  
 The following legend is applicable only to US Government
 contracts under FAR:
  
                    RESTRICTED RIGHTS LEGEND
  
 Use, reproduction and disclosure by the US Government is
 subject to restrictions as set forth in subparagraphs (a)
 and (c) of the Commercial Computer Software - Restricted
 Rights clause in FAR 52.227-19.
  
 Gaussian, Inc.
 340 Quinnipiac St., Bldg. 40, Wallingford CT 06492
  
  
 ---------------------------------------------------------------
 Warning -- This program may not be used in any manner that
 competes with the business of Gaussian, Inc. or will provide
 assistance to any competitor of Gaussian, Inc.  The licensee
 of this program is prohibited from giving any competitor of
 Gaussian, Inc. access to this program.  By using this program,
 the user acknowledges that Gaussian, Inc. is engaged in the
 business of creating and licensing software in the field of
 computational chemistry and represents and warrants to the
 licensee that it is not a competitor of Gaussian, Inc. and that
 it will not use this program in any manner prohibited above.
 ---------------------------------------------------------------
  

 Cite this work as:
 Gaussian Development Version, Revision I.03+,
 M. J. Frisch, G. W. Trucks, H. B. Schlegel, G. E. Scuseria, 
 M. A. Robb, J. R. Cheeseman, G. Scalmani, V. Barone, B. Mennucci, 
 G. A. Petersson, H. Nakatsuji, M. Caricato, X. Li, H. P. Hratchian, 
 J. Bloino, B. G. Janesko, A. F. Izmaylov, A. Marenich, F. Lipparini, 
 G. Zheng, J. L. Sonnenberg, W. Liang, M. Hada, M. Ehara, K. Toyota, 
 R. Fukuda, J. Hasegawa, M. Ishida, T. Nakajima, Y. Honda, O. Kitao, 
 H. Nakai, T. Vreven, K. Throssell, J. A. Montgomery, Jr., 
 J. E. Peralta, F. Ogliaro, M. Bearpark, J. J. Heyd, E. Brothers, 
 K. N. Kudin, V. N. Staroverov, T. Keith, R. Kobayashi, J. Normand, 
 K. Raghavachari, A. Rendell, J. C. Burant, S. S. Iyengar, J. Tomasi, 
 M. Cossi, N. Rega, J. M. Millam, M. Klene, J. E. Knox, J. B. Cross, 
 V. Bakken, C. Adamo, J. Jaramillo, R. Gomperts, R. E. Stratmann, 
 O. Yazyev, A. J. Austin, R. Cammi, C. Pomelli, J. W. Ochterski, 
 R. L. Martin, K. Morokuma, V. G. Zakrzewski, G. A. Voth, 
 P. Salvador, J. J. Dannenberg, S. Dapprich, P. V. Parandekar, 
 N. J. Mayhall, A. D. Daniels, O. Farkas, J. B. Foresman, 
 J. V. Ortiz, J. Cioslowski, and D. J. Fox, 
 Gaussian, Inc., Wallingford CT, 2014.
 
 *******************************************
 Gaussian DV:  ES64L-GDVRevI.03+  2-May-2015
                  2-Oct-2015 
 *******************************************
 ---------------------------------
 #p rohf/sto-3g nosymm Field=X-100
 ---------------------------------
 1/38=1,172=1/1;
 2/12=2,15=1,17=6,18=5,40=1/2;
 3/6=3,11=2,14=1,15=-100,25=1,30=1,116=101/1,2,3;
 4//1;
 5/5=2,38=5/2;
 6/7=2,8=2,9=2,10=2,28=1/1;
 99/5=1,9=1/99;
 Leave Link    1 at Fri Oct  2 16:04:02 2015, MaxMem=           0 cpu:               0.0 elap:               0.0
 (Enter /home/gauss/gdvi03p/gdv/l101.exe)
 ------------------------
 S-Propylene Oxide STO-3G
 ------------------------
 Symbolic Z-matrix:
 Charge =  1 Multiplicity = 2
 C                     0.15213  -0.0358    0.4858 
 C                    -1.03947   0.61594  -0.06125 
 C                     1.50714   0.09781  -0.14846 
 O                    -0.82822  -0.78825  -0.23943 
 H                     0.15373  -0.24926   1.55214 
 H                    -1.86318   0.88192   0.59333 
 H                    -0.94981   1.21421  -0.96277 
 H                     2.07681  -0.82619  -0.03667 
 H                     2.07447   0.90179   0.32511 
 H                     1.4149    0.31585  -1.21222 
 
 ITRead=  0  0  0  0  0  0  0  0  0  0
 MicOpt= -1 -1 -1 -1 -1 -1 -1 -1 -1 -1
 NAtoms=     10 NQM=       10 NQMF=       0 NMMI=      0 NMMIF=      0
                NMic=       0 NMicF=      0.
                    Isotopes and Nuclear Properties:
 (Nuclear quadrupole moments (NQMom) in fm**2, nuclear magnetic moments (NMagM)
  in nuclear magnetons)

  Atom         1           2           3           4           5           6           7           8           9          10
 IAtWgt=          12          12          12          16           1           1           1           1           1           1
 AtmWgt=  12.0000000  12.0000000  12.0000000  15.9949146   1.0078250   1.0078250   1.0078250   1.0078250   1.0078250   1.0078250
 NucSpn=           0           0           0           0           1           1           1           1           1           1
 AtZEff=   0.0000000   0.0000000   0.0000000   0.0000000   0.0000000   0.0000000   0.0000000   0.0000000   0.0000000   0.0000000
 NQMom=    0.0000000   0.0000000   0.0000000   0.0000000   0.0000000   0.0000000   0.0000000   0.0000000   0.0000000   0.0000000
 NMagM=    0.0000000   0.0000000   0.0000000   0.0000000   2.7928460   2.7928460   2.7928460   2.7928460   2.7928460   2.7928460
 AtZNuc=   6.0000000   6.0000000   6.0000000   8.0000000   1.0000000   1.0000000   1.0000000   1.0000000   1.0000000   1.0000000
 Leave Link  101 at Fri Oct  2 16:04:03 2015, MaxMem=    33554432 cpu:               0.1 elap:               0.1
 (Enter /home/gauss/gdvi03p/gdv/l202.exe)
                          Input orientation:                          
 ---------------------------------------------------------------------
 Center     Atomic      Atomic             Coordinates (Angstroms)
 Number     Number       Type             X           Y           Z
 ---------------------------------------------------------------------
      1          6           0        0.152133   -0.035800    0.485797
      2          6           0       -1.039475    0.615938   -0.061249
      3          6           0        1.507144    0.097806   -0.148460
      4          8           0       -0.828215   -0.788248   -0.239431
      5          1           0        0.153725   -0.249258    1.552136
      6          1           0       -1.863178    0.881921    0.593333
      7          1           0       -0.949807    1.214210   -0.962771
      8          1           0        2.076806   -0.826189   -0.036671
      9          1           0        2.074465    0.901788    0.325106
     10          1           0        1.414895    0.315852   -1.212218
 ---------------------------------------------------------------------
                    Distance matrix (angstroms):
                    1          2          3          4          5
     1  C    0.000000
     2  C    1.464224   0.000000
     3  C    1.502061   2.600257   0.000000
     4  O    1.432905   1.431125   2.499454   0.000000
     5  H    1.087495   2.185246   2.200960   2.112919   0.000000
     6  H    2.217037   1.085224   3.538950   2.134036   2.503351
     7  H    2.207973   1.085685   2.818877   2.132567   3.111957
     8  H    2.145240   3.433881   1.091228   2.912336   2.560351
     9  H    2.144820   3.150810   1.092019   3.405947   2.553380
    10  H    2.145107   2.727400   1.089787   2.682703   3.090559
                    6          7          8          9         10
     6  H    0.000000
     7  H    1.834699   0.000000
     8  H    4.340279   3.765803   0.000000
     9  H    3.946818   3.301887   1.765444   0.000000
    10  H    3.784998   2.541867   1.767567   1.772489   0.000000
 Symmetry turned off by external request.
 Stoichiometry    C3H6O(1+,2)
 Framework group  C1[X(C3H6O)]
 Deg. of freedom    24
 Full point group                 C1      NOp   1
 Rotational constants (GHZ):     18.2269979      6.6669563      5.9403328
 Leave Link  202 at Fri Oct  2 16:04:03 2015, MaxMem=    33554432 cpu:               0.0 elap:               0.0
 (Enter /home/gauss/gdvi03p/gdv/l301.exe)
 Standard basis: STO-3G (5D, 7F)
 Ernie: Thresh=  0.10000D-02 Tol=  0.10000D-05 Strict=F.
 The following finite field(s) will be applied:
 An electric field of             -0.0100  0.0000  0.0000
    26 basis functions,    78 primitive gaussians,    26 cartesian basis functions
    16 alpha electrons       15 beta electrons
       nuclear repulsion energy       124.7885346707 Hartrees.
 IExCor=    0 DFT=F Ex=HF Corr=None ExCW=0 ScaHFX=  1.000000
 ScaDFX=  1.000000  1.000000  1.000000  1.000000 ScalE2=  1.000000  1.000000
 IRadAn=      0 IRanWt=     -1 IRanGd=            0 ICorTp=0 IEmpDi=  4
 NAtoms=   10 NActive=   10 NUniq=   10 SFac= 1.00D+00 NAtFMM=   60 NAOKFM=F Big=F
 Integral buffers will be    131072 words long.
 Raffenetti 2 integral format.
 Two-electron integral symmetry is turned off.
 Leave Link  301 at Fri Oct  2 16:04:03 2015, MaxMem=    33554432 cpu:               0.0 elap:               0.1
 (Enter /home/gauss/gdvi03p/gdv/l302.exe)
 NPDir=0 NMtPBC=     1 NCelOv=     1 NCel=       1 NClECP=     1 NCelD=      1
         NCelK=      1 NCelE2=     1 NClLst=     1 CellRange=     0.0.
 One-electron integrals computed using PRISM.
 One-electron integral symmetry used in STVInt
 NBasis=    26 RedAO= T EigKep=  2.09D-01  NBF=    26
 NBsUse=    26 1.00D-06 EigRej= -1.00D+00 NBFU=    26
 Leave Link  302 at Fri Oct  2 16:04:03 2015, MaxMem=    33554432 cpu:               0.1 elap:               0.1
 (Enter /home/gauss/gdvi03p/gdv/l303.exe)
 DipDrv:  MaxL=1.
 The nuclear repulsion energy is now       124.7885347085 hartrees.
 Leave Link  303 at Fri Oct  2 16:04:03 2015, MaxMem=    33554432 cpu:               0.0 elap:               0.1
 (Enter /home/gauss/gdvi03p/gdv/l401.exe)
 ExpMin= 1.69D-01 ExpMax= 1.31D+02 ExpMxC= 1.31D+02 IAcc=1 IRadAn=         1 AccDes= 0.00D+00
 Harris functional with IExCor=  205 and IRadAn=       1 diagonalized for initial guess.
 HarFok:  IExCor=  205 AccDes= 0.00D+00 IRadAn=         1 IDoV= 1 UseB2=F ITyADJ=14
 ICtDFT=  3500011 ScaDFX=  1.000000  1.000000  1.000000  1.000000
 FoFCou: FMM=F IPFlag=           0 FMFlag=      100000 FMFlg1=           0
         NFxFlg=           0 DoJE=T BraDBF=F KetDBF=T FulRan=T
         wScrn=  0.000000 ICntrl=       500 IOpCl=  0 I1Cent=   200000004 NGrid=           0
         NMat0=    1 NMatS0=      1 NMatT0=    0 NMatD0=    1 NMtDS0=    0 NMtDT0=    0
 Symmetry not used in FoFCou.
 Harris En= -189.432640137299    
 JPrj=0 DoOrth=F DoCkMO=F.
 Leave Link  401 at Fri Oct  2 16:04:04 2015, MaxMem=    33554432 cpu:               0.2 elap:               0.3
 (Enter /home/gauss/gdvi03p/gdv/l502.exe)
 Keep R1 and R2 ints in memory in canonical form, NReq=938551.
 FoFCou: FMM=F IPFlag=           0 FMFlag=           0 FMFlg1=           0
         NFxFlg=           0 DoJE=F BraDBF=F KetDBF=F FulRan=T
         wScrn=  0.000000 ICntrl=       600 IOpCl=  0 I1Cent=           0 NGrid=           0
         NMat0=    1 NMatS0=    351 NMatT0=    0 NMatD0=    1 NMtDS0=    0 NMtDT0=    0
 Symmetry not used in FoFCou.
 Two-electron integral symmetry not used.
 Restricted open shell SCF:
 Using DIIS extrapolation, IDIIS=  1040.
 NGot=    33554432 LenX=    33428760 LenY=    33427643
 Requested convergence on RMS density matrix=1.00D-08 within 128 cycles.
 Requested convergence on MAX density matrix=1.00D-06.
 Requested convergence on             energy=1.00D-06.
 No special actions if energy rises.

 Cycle   1  Pass 1  IDiag  1:
 E= -189.139845727430    
 DIIS: error= 6.69D-02 at cycle   1 NSaved=   1.
 NSaved= 1 IEnMin= 1 EnMin= -189.139845727430     IErMin= 1 ErrMin= 6.69D-02
 ErrMax= 6.69D-02  0.00D+00 EMaxC= 1.00D-01 BMatC= 1.19D-01 BMatP= 1.19D-01
 IDIUse=3 WtCom= 3.31D-01 WtEn= 6.69D-01
 Coeff-Com:  0.100D+01
 Coeff-En:   0.100D+01
 Coeff:      0.100D+01
 Gap=     0.522 Goal=   None    Shift=    0.000
 GapD=    0.522 DampG=2.000 DampE=0.500 DampFc=1.0000 IDamp=-1.
 RMSDP=1.93D-02 MaxDP=1.55D-01              OVMax= 0.00D+00

 Cycle   2  Pass 1  IDiag  1:
 E= -189.235871618302     Delta-E=       -0.096025890872 Rises=F Damp=F
 DIIS: error= 1.85D-02 at cycle   2 NSaved=   2.
 NSaved= 2 IEnMin= 2 EnMin= -189.235871618302     IErMin= 2 ErrMin= 1.85D-02
 ErrMax= 1.85D-02  0.00D+00 EMaxC= 1.00D-01 BMatC= 1.11D-02 BMatP= 1.19D-01
 IDIUse=3 WtCom= 8.15D-01 WtEn= 1.85D-01
 Coeff-Com:  0.201D+00 0.799D+00
 Coeff-En:   0.000D+00 0.100D+01
 Coeff:      0.164D+00 0.836D+00
 Gap=     0.441 Goal=   None    Shift=    0.000
 RMSDP=8.16D-03 MaxDP=7.02D-02 DE=-9.60D-02 OVMax= 0.00D+00

 Cycle   3  Pass 1  IDiag  1:
 E= -189.260204840510     Delta-E=       -0.024333222208 Rises=F Damp=F
 DIIS: error= 1.04D-02 at cycle   3 NSaved=   3.
 NSaved= 3 IEnMin= 3 EnMin= -189.260204840510     IErMin= 3 ErrMin= 1.04D-02
 ErrMax= 1.04D-02  0.00D+00 EMaxC= 1.00D-01 BMatC= 2.06D-03 BMatP= 1.11D-02
 IDIUse=3 WtCom= 8.96D-01 WtEn= 1.04D-01
 Coeff-Com: -0.196D-01 0.262D+00 0.757D+00
 Coeff-En:   0.000D+00 0.000D+00 0.100D+01
 Coeff:     -0.175D-01 0.235D+00 0.783D+00
 Gap=     0.450 Goal=   None    Shift=    0.000
 RMSDP=2.33D-03 MaxDP=1.66D-02 DE=-2.43D-02 OVMax= 0.00D+00

 Cycle   4  Pass 1  IDiag  1:
 E= -189.263115782401     Delta-E=       -0.002910941892 Rises=F Damp=F
 DIIS: error= 2.23D-03 at cycle   4 NSaved=   4.
 NSaved= 4 IEnMin= 4 EnMin= -189.263115782401     IErMin= 4 ErrMin= 2.23D-03
 ErrMax= 2.23D-03  0.00D+00 EMaxC= 1.00D-01 BMatC= 6.97D-05 BMatP= 2.06D-03
 IDIUse=3 WtCom= 9.78D-01 WtEn= 2.23D-02
 Coeff-Com: -0.107D-01 0.200D-01-0.136D-01 0.100D+01
 Coeff-En:   0.000D+00 0.000D+00 0.000D+00 0.100D+01
 Coeff:     -0.104D-01 0.196D-01-0.133D-01 0.100D+01
 Gap=     0.453 Goal=   None    Shift=    0.000
 RMSDP=7.25D-04 MaxDP=4.89D-03 DE=-2.91D-03 OVMax= 0.00D+00

 Cycle   5  Pass 1  IDiag  1:
 E= -189.263418779935     Delta-E=       -0.000302997534 Rises=F Damp=F
 DIIS: error= 7.42D-04 at cycle   5 NSaved=   5.
 NSaved= 5 IEnMin= 5 EnMin= -189.263418779935     IErMin= 5 ErrMin= 7.42D-04
 ErrMax= 7.42D-04  0.00D+00 EMaxC= 1.00D-01 BMatC= 1.09D-05 BMatP= 6.97D-05
 IDIUse=3 WtCom= 9.93D-01 WtEn= 7.42D-03
 Coeff-Com:  0.204D-02-0.104D-01-0.101D+00-0.999D-01 0.121D+01
 Coeff-En:   0.000D+00 0.000D+00 0.000D+00 0.000D+00 0.100D+01
 Coeff:      0.202D-02-0.104D-01-0.998D-01-0.991D-01 0.121D+01
 Gap=     0.454 Goal=   None    Shift=    0.000
 RMSDP=3.49D-04 MaxDP=2.61D-03 DE=-3.03D-04 OVMax= 0.00D+00

 Cycle   6  Pass 1  IDiag  1:
 E= -189.263455432223     Delta-E=       -0.000036652288 Rises=F Damp=F
 DIIS: error= 5.73D-05 at cycle   6 NSaved=   6.
 NSaved= 6 IEnMin= 6 EnMin= -189.263455432223     IErMin= 6 ErrMin= 5.73D-05
 ErrMax= 5.73D-05  0.00D+00 EMaxC= 1.00D-01 BMatC= 1.81D-07 BMatP= 1.09D-05
 IDIUse=1 WtCom= 1.00D+00 WtEn= 0.00D+00
 Coeff-Com:  0.339D-03-0.113D-02 0.160D-02-0.254D-01 0.251D-01 0.999D+00
 Coeff:      0.339D-03-0.113D-02 0.160D-02-0.254D-01 0.251D-01 0.999D+00
 Gap=     0.454 Goal=   None    Shift=    0.000
 RMSDP=5.79D-05 MaxDP=6.79D-04 DE=-3.67D-05 OVMax= 0.00D+00

 Cycle   7  Pass 1  IDiag  1:
 E= -189.263457157022     Delta-E=       -0.000001724799 Rises=F Damp=F
 DIIS: error= 3.75D-05 at cycle   7 NSaved=   7.
 NSaved= 7 IEnMin= 7 EnMin= -189.263457157022     IErMin= 7 ErrMin= 3.75D-05
 ErrMax= 3.75D-05  0.00D+00 EMaxC= 1.00D-01 BMatC= 3.54D-08 BMatP= 1.81D-07
 IDIUse=1 WtCom= 1.00D+00 WtEn= 0.00D+00
 Coeff-Com: -0.243D-03 0.717D-03 0.126D-01 0.162D-01-0.136D+00 0.551D-01
 Coeff-Com:  0.105D+01
 Coeff:     -0.243D-03 0.717D-03 0.126D-01 0.162D-01-0.136D+00 0.551D-01
 Coeff:      0.105D+01
 Gap=     0.454 Goal=   None    Shift=    0.000
 RMSDP=4.67D-05 MaxDP=6.22D-04 DE=-1.72D-06 OVMax= 0.00D+00

 Cycle   8  Pass 1  IDiag  1:
 E= -189.263458193626     Delta-E=       -0.000001036604 Rises=F Damp=F
 DIIS: error= 1.04D-05 at cycle   8 NSaved=   8.
 NSaved= 8 IEnMin= 8 EnMin= -189.263458193626     IErMin= 8 ErrMin= 1.04D-05
 ErrMax= 1.04D-05  0.00D+00 EMaxC= 1.00D-01 BMatC= 3.66D-09 BMatP= 3.54D-08
 IDIUse=1 WtCom= 1.00D+00 WtEn= 0.00D+00
 Coeff-Com:  0.105D-04-0.380D-04-0.234D-02-0.878D-03 0.202D-01-0.807D-01
 Coeff-Com: -0.193D+00 0.126D+01
 Coeff:      0.105D-04-0.380D-04-0.234D-02-0.878D-03 0.202D-01-0.807D-01
 Coeff:     -0.193D+00 0.126D+01
 Gap=     0.454 Goal=   None    Shift=    0.000
 RMSDP=4.02D-05 MaxDP=5.32D-04 DE=-1.04D-06 OVMax= 0.00D+00

 Cycle   9  Pass 1  IDiag  1:
 E= -189.263458835861     Delta-E=       -0.000000642235 Rises=F Damp=F
 DIIS: error= 7.15D-06 at cycle   9 NSaved=   9.
 NSaved= 9 IEnMin= 9 EnMin= -189.263458835861     IErMin= 9 ErrMin= 7.15D-06
 ErrMax= 7.15D-06  0.00D+00 EMaxC= 1.00D-01 BMatC= 1.53D-09 BMatP= 3.66D-09
 IDIUse=1 WtCom= 1.00D+00 WtEn= 0.00D+00
 Coeff-Com:  0.746D-04-0.122D-03-0.296D-02-0.526D-02 0.307D-01-0.363D-03
 Coeff-Com: -0.234D+00-0.295D+00 0.151D+01
 Coeff:      0.746D-04-0.122D-03-0.296D-02-0.526D-02 0.307D-01-0.363D-03
 Coeff:     -0.234D+00-0.295D+00 0.151D+01
 Gap=     0.454 Goal=   None    Shift=    0.000
 RMSDP=4.30D-05 MaxDP=5.63D-04 DE=-6.42D-07 OVMax= 0.00D+00

 Cycle  10  Pass 1  IDiag  1:
 E= -189.263459288386     Delta-E=       -0.000000452525 Rises=F Damp=F
 DIIS: error= 4.36D-06 at cycle  10 NSaved=  10.
 NSaved=10 IEnMin=10 EnMin= -189.263459288386     IErMin=10 ErrMin= 4.36D-06
 ErrMax= 4.36D-06  0.00D+00 EMaxC= 1.00D-01 BMatC= 4.13D-10 BMatP= 1.53D-09
 IDIUse=1 WtCom= 1.00D+00 WtEn= 0.00D+00
 Coeff-Com: -0.650D-04 0.206D-03 0.306D-02 0.463D-02-0.283D-01 0.108D-01
 Coeff-Com:  0.209D+00-0.190D+00-0.112D+01 0.211D+01
 Coeff:     -0.650D-04 0.206D-03 0.306D-02 0.463D-02-0.283D-01 0.108D-01
 Coeff:      0.209D+00-0.190D+00-0.112D+01 0.211D+01
 Gap=     0.454 Goal=   None    Shift=    0.000
 RMSDP=4.38D-05 MaxDP=5.66D-04 DE=-4.53D-07 OVMax= 0.00D+00

 Cycle  11  Pass 1  IDiag  1:
 E= -189.263459503481     Delta-E=       -0.000000215095 Rises=F Damp=F
 DIIS: error= 1.60D-06 at cycle  11 NSaved=  11.
 NSaved=11 IEnMin=11 EnMin= -189.263459503481     IErMin=11 ErrMin= 1.60D-06
 ErrMax= 1.60D-06  0.00D+00 EMaxC= 1.00D-01 BMatC= 5.32D-11 BMatP= 4.13D-10
 IDIUse=1 WtCom= 1.00D+00 WtEn= 0.00D+00
 Coeff-Com: -0.742D-05 0.118D-04 0.261D-03 0.386D-03-0.350D-02 0.164D-02
 Coeff-Com:  0.262D-01 0.215D-01-0.165D+00-0.842D-01 0.120D+01
 Coeff:     -0.742D-05 0.118D-04 0.261D-03 0.386D-03-0.350D-02 0.164D-02
 Coeff:      0.262D-01 0.215D-01-0.165D+00-0.842D-01 0.120D+01
 Gap=     0.454 Goal=   None    Shift=    0.000
 RMSDP=1.23D-05 MaxDP=1.65D-04 DE=-2.15D-07 OVMax= 0.00D+00

 Cycle  12  Pass 1  IDiag  1:
 E= -189.263459520304     Delta-E=       -0.000000016823 Rises=F Damp=F
 DIIS: error= 5.76D-07 at cycle  12 NSaved=  12.
 NSaved=12 IEnMin=12 EnMin= -189.263459520304     IErMin=12 ErrMin= 5.76D-07
 ErrMax= 5.76D-07  0.00D+00 EMaxC= 1.00D-01 BMatC= 9.63D-12 BMatP= 5.32D-11
 IDIUse=1 WtCom= 1.00D+00 WtEn= 0.00D+00
 Coeff-Com:  0.753D-05-0.185D-04-0.356D-03-0.608D-03 0.323D-02-0.147D-02
 Coeff-Com: -0.252D-01 0.194D-01 0.142D+00-0.255D+00-0.120D+00 0.124D+01
 Coeff:      0.753D-05-0.185D-04-0.356D-03-0.608D-03 0.323D-02-0.147D-02
 Coeff:     -0.252D-01 0.194D-01 0.142D+00-0.255D+00-0.120D+00 0.124D+01
 Gap=     0.454 Goal=   None    Shift=    0.000
 RMSDP=3.75D-06 MaxDP=6.04D-05 DE=-1.68D-08 OVMax= 0.00D+00

 Cycle  13  Pass 1  IDiag  1:
 E= -189.263459522089     Delta-E=       -0.000000001785 Rises=F Damp=F
 DIIS: error= 2.98D-07 at cycle  13 NSaved=  13.
 NSaved=13 IEnMin=13 EnMin= -189.263459522089     IErMin=13 ErrMin= 2.98D-07
 ErrMax= 2.98D-07  0.00D+00 EMaxC= 1.00D-01 BMatC= 3.14D-12 BMatP= 9.63D-12
 IDIUse=1 WtCom= 1.00D+00 WtEn= 0.00D+00
 Coeff-Com: -0.562D-05 0.239D-04 0.269D-03 0.423D-03-0.197D-02-0.178D-03
 Coeff-Com:  0.135D-01-0.194D-01-0.654D-01 0.225D+00-0.293D+00-0.624D+00
 Coeff-Com:  0.177D+01
 Coeff:     -0.562D-05 0.239D-04 0.269D-03 0.423D-03-0.197D-02-0.178D-03
 Coeff:      0.135D-01-0.194D-01-0.654D-01 0.225D+00-0.293D+00-0.624D+00
 Coeff:      0.177D+01
 Gap=     0.454 Goal=   None    Shift=    0.000
 RMSDP=1.55D-06 MaxDP=2.79D-05 DE=-1.78D-09 OVMax= 0.00D+00

 Cycle  14  Pass 1  IDiag  1:
 E= -189.263459522584     Delta-E=       -0.000000000495 Rises=F Damp=F
 DIIS: error= 1.18D-07 at cycle  14 NSaved=  14.
 NSaved=14 IEnMin=14 EnMin= -189.263459522584     IErMin=14 ErrMin= 1.18D-07
 ErrMax= 1.18D-07  0.00D+00 EMaxC= 1.00D-01 BMatC= 7.69D-13 BMatP= 3.14D-12
 IDIUse=1 WtCom= 1.00D+00 WtEn= 0.00D+00
 Coeff-Com: -0.124D-05 0.164D-05 0.566D-04 0.790D-04-0.729D-03 0.105D-02
 Coeff-Com:  0.633D-02-0.430D-02-0.339D-01 0.262D-01 0.142D+00-0.178D+00
 Coeff-Com: -0.626D+00 0.167D+01
 Coeff:     -0.124D-05 0.164D-05 0.566D-04 0.790D-04-0.729D-03 0.105D-02
 Coeff:      0.633D-02-0.430D-02-0.339D-01 0.262D-01 0.142D+00-0.178D+00
 Coeff:     -0.626D+00 0.167D+01
 Gap=     0.454 Goal=   None    Shift=    0.000
 RMSDP=8.46D-07 MaxDP=1.51D-05 DE=-4.95D-10 OVMax= 0.00D+00

 Cycle  15  Pass 1  IDiag  1:
 E= -189.263459522684     Delta-E=       -0.000000000099 Rises=F Damp=F
 DIIS: error= 4.52D-08 at cycle  15 NSaved=  15.
 NSaved=15 IEnMin=15 EnMin= -189.263459522684     IErMin=15 ErrMin= 4.52D-08
 ErrMax= 4.52D-08  0.00D+00 EMaxC= 1.00D-01 BMatC= 7.66D-14 BMatP= 7.69D-13
 IDIUse=1 WtCom= 1.00D+00 WtEn= 0.00D+00
 Coeff-Com:  0.368D-06-0.190D-05-0.216D-04-0.375D-04 0.782D-04 0.109D-03
 Coeff-Com: -0.391D-03 0.266D-02 0.590D-03-0.232D-01 0.578D-01 0.676D-01
 Coeff-Com: -0.296D+00 0.131D+00 0.106D+01
 Coeff:      0.368D-06-0.190D-05-0.216D-04-0.375D-04 0.782D-04 0.109D-03
 Coeff:     -0.391D-03 0.266D-02 0.590D-03-0.232D-01 0.578D-01 0.676D-01
 Coeff:     -0.296D+00 0.131D+00 0.106D+01
 Gap=     0.454 Goal=   None    Shift=    0.000
 RMSDP=1.49D-07 MaxDP=2.51D-06 DE=-9.95D-11 OVMax= 0.00D+00

 Cycle  16  Pass 1  IDiag  1:
 E= -189.263459522687     Delta-E=       -0.000000000003 Rises=F Damp=F
 DIIS: error= 6.03D-09 at cycle  16 NSaved=  16.
 NSaved=16 IEnMin=16 EnMin= -189.263459522687     IErMin=16 ErrMin= 6.03D-09
 ErrMax= 6.03D-09  0.00D+00 EMaxC= 1.00D-01 BMatC= 2.50D-15 BMatP= 7.66D-14
 IDIUse=1 WtCom= 1.00D+00 WtEn= 0.00D+00
 Coeff-Com: -0.838D-07 0.561D-06 0.312D-05 0.572D-05-0.108D-04-0.107D-03
 Coeff-Com: -0.114D-04 0.457D-03-0.309D-03 0.242D-02-0.111D-01 0.136D-02
 Coeff-Com:  0.619D-01-0.107D+00-0.627D-01 0.111D+01
 Coeff:     -0.838D-07 0.561D-06 0.312D-05 0.572D-05-0.108D-04-0.107D-03
 Coeff:     -0.114D-04 0.457D-03-0.309D-03 0.242D-02-0.111D-01 0.136D-02
 Coeff:      0.619D-01-0.107D+00-0.627D-01 0.111D+01
 Gap=     0.454 Goal=   None    Shift=    0.000
 RMSDP=1.43D-08 MaxDP=2.26D-07 DE=-3.13D-12 OVMax= 0.00D+00

 Cycle  17  Pass 1  IDiag  1:
 E= -189.263459522687     Delta-E=        0.000000000000 Rises=F Damp=F
 DIIS: error= 1.53D-09 at cycle  17 NSaved=  17.
 NSaved=17 IEnMin=17 EnMin= -189.263459522687     IErMin=17 ErrMin= 1.53D-09
 ErrMax= 1.53D-09  0.00D+00 EMaxC= 1.00D-01 BMatC= 1.52D-16 BMatP= 2.50D-15
 IDIUse=1 WtCom= 1.00D+00 WtEn= 0.00D+00
 Large coefficients: NSaved= 17 BigCof=    0.00 CofMax=   10.00 Det=-9.94D-16
 Inversion failed.  Reducing to 16 matrices.
 Large coefficients: NSaved= 16 BigCof=    0.00 CofMax=   10.00 Det=-1.03D-15
 Inversion failed.  Reducing to 15 matrices.
 Coeff-Com:  0.414D-07 0.494D-06 0.778D-05-0.103D-04-0.590D-04-0.127D-03
 Coeff-Com:  0.356D-03 0.833D-03-0.403D-02-0.231D-02 0.196D-01-0.158D-01
 Coeff-Com: -0.686D-01 0.852D-01 0.985D+00
 Coeff:      0.414D-07 0.494D-06 0.778D-05-0.103D-04-0.590D-04-0.127D-03
 Coeff:      0.356D-03 0.833D-03-0.403D-02-0.231D-02 0.196D-01-0.158D-01
 Coeff:     -0.686D-01 0.852D-01 0.985D+00
 Gap=     0.454 Goal=   None    Shift=    0.000
 RMSDP=4.99D-09 MaxDP=8.39D-08 DE=-1.14D-13 OVMax= 0.00D+00

 SCF Done:  E(ROHF) =  -189.263459523     A.U. after   17 cycles
            NFock= 17  Conv=0.50D-08     -V/T= 2.0143
 <Sx>= 0.0000 <Sy>= 0.0000 <Sz>= 0.5000 <S**2>= 0.7500 S= 0.5000
 <L.S>= 0.000000000000E+00
 KE= 1.865956039858D+02 PE=-6.817393348706D+02 EE= 1.810917366536D+02
 Annihilation of the first spin contaminant:
 S**2 before annihilation     0.7500,   after     0.7500
 Leave Link  502 at Fri Oct  2 16:04:04 2015, MaxMem=    33554432 cpu:               0.1 elap:               0.2
 (Enter /home/gauss/gdvi03p/gdv/l601.exe)
 Copying SCF densities to generalized density rwf, IOpCl= 0 IROHF=1.

 **********************************************************************

            Population analysis using the SCF density.

 **********************************************************************

 Alpha  occ. eigenvalues --  -20.86709 -11.44441 -11.44027 -11.26773  -1.76700
 Alpha  occ. eigenvalues --   -1.24589  -1.18192  -1.07163  -0.96129  -0.90883
 Alpha  occ. eigenvalues --   -0.86322  -0.78599  -0.75311  -0.71468  -0.68514
 Alpha  occ. eigenvalues --   -0.35501
 Alpha virt. eigenvalues --    0.09861   0.16188   0.32394   0.36996   0.39257
 Alpha virt. eigenvalues --    0.42223   0.51918   0.52808   0.56068   0.57766
          Condensed to atoms (all electrons):
               1          2          3          4          5          6
     1  C    4.792654   0.311505   0.354672   0.158308   0.382144  -0.014914
     2  C    0.311505   4.809608  -0.017867   0.160870  -0.018640   0.382818
     3  C    0.354672  -0.017867   4.733702  -0.010820  -0.016981   0.000716
     4  O    0.158308   0.160870  -0.010820   7.591559  -0.010334  -0.009126
     5  H    0.382144  -0.018640  -0.016981  -0.010334   0.479474  -0.003729
     6  H   -0.014914   0.382818   0.000716  -0.009126  -0.003729   0.485591
     7  H   -0.015695   0.381326  -0.002826  -0.009030   0.001118  -0.016355
     8  H   -0.021678   0.001349   0.382622  -0.000657  -0.001778  -0.000023
     9  H   -0.017328  -0.000731   0.380523   0.000532  -0.001518  -0.000006
    10  H   -0.023968  -0.002925   0.384463  -0.000785   0.001510   0.000000
               7          8          9         10
     1  C   -0.015695  -0.021678  -0.017328  -0.023968
     2  C    0.381326   0.001349  -0.000731  -0.002925
     3  C   -0.002826   0.382622   0.380523   0.384463
     4  O   -0.009030  -0.000657   0.000532  -0.000785
     5  H    0.001118  -0.001778  -0.001518   0.001510
     6  H   -0.016355  -0.000023  -0.000006   0.000000
     7  H    0.470269   0.000019   0.000164   0.000473
     8  H    0.000019   0.527301  -0.015476  -0.018399
     9  H    0.000164  -0.015476   0.513036  -0.016483
    10  H    0.000473  -0.018399  -0.016483   0.562680
          Atomic-Atomic Spin Densities.
               1          2          3          4          5          6
     1  C    0.009616   0.001430   0.004611  -0.012634   0.003392   0.000419
     2  C    0.001430   0.005919   0.000434  -0.010010   0.000313   0.002891
     3  C    0.004611   0.000434   0.011635  -0.003019  -0.001497  -0.000097
     4  O   -0.012634  -0.010010  -0.003019   0.977954  -0.003177  -0.002889
     5  H    0.003392   0.000313  -0.001497  -0.003177   0.011882   0.000562
     6  H    0.000419   0.002891  -0.000097  -0.002889   0.000562   0.010968
     7  H    0.000531   0.003362   0.000367  -0.002867  -0.000159  -0.001656
     8  H   -0.000049  -0.000002  -0.000044   0.000030   0.000026   0.000000
     9  H   -0.000316  -0.000026   0.000022   0.000047   0.000167   0.000007
    10  H   -0.000257  -0.000058  -0.000180   0.000317   0.000031   0.000006
               7          8          9         10
     1  C    0.000531  -0.000049  -0.000316  -0.000257
     2  C    0.003362  -0.000002  -0.000026  -0.000058
     3  C    0.000367  -0.000044   0.000022  -0.000180
     4  O   -0.002867   0.000030   0.000047   0.000317
     5  H   -0.000159   0.000026   0.000167   0.000031
     6  H   -0.001656   0.000000   0.000007   0.000006
     7  H    0.010349  -0.000002  -0.000033  -0.000087
     8  H   -0.000002   0.000029   0.000032   0.000017
     9  H   -0.000033   0.000032   0.001173   0.000110
    10  H   -0.000087   0.000017   0.000110   0.000349
 Mulliken charges and spin densities:
               1          2
     1  C    0.094298   0.006743
     2  C   -0.007315   0.004253
     3  C   -0.188205   0.012232
     4  O    0.129482   0.943751
     5  H    0.188733   0.011538
     6  H    0.175028   0.010211
     7  H    0.190539   0.009806
     8  H    0.146719   0.000036
     9  H    0.157285   0.001182
    10  H    0.113435   0.000248
 Sum of Mulliken charges =   1.00000   1.00000
 Mulliken charges and spin densities with hydrogens summed into heavy atoms:
               1          2
     1  C    0.283031   0.018281
     2  C    0.358253   0.024270
     3  C    0.229234   0.013698
     4  O    0.129482   0.943751
 Electronic spatial extent (au):  <R**2>=            252.8765
 Charge=              1.0000 electrons
 Dipole moment (field-independent basis, Debye):
    X=             -0.8625    Y=              0.6941    Z=              0.6493  Tot=              1.2835
 Quadrupole moment (field-independent basis, Debye-Ang):
   XX=            -15.5824   YY=            -20.6506   ZZ=            -19.2097
   XY=             -1.2909   XZ=             -0.1861   YZ=             -0.9509
 Traceless Quadrupole moment (field-independent basis, Debye-Ang):
   XX=              2.8985   YY=             -2.1697   ZZ=             -0.7288
   XY=             -1.2909   XZ=             -0.1861   YZ=             -0.9509
 Octapole moment (field-independent basis, Debye-Ang**2):
  XXX=             -2.8334  YYY=             -2.4909  ZZZ=              0.1213  XYY=             -1.4432
  XXY=              1.4849  XXZ=              1.4772  XZZ=             -2.0229  YZZ=             -0.4894
  YYZ=             -0.6587  XYZ=              0.6250
 Hexadecapole moment (field-independent basis, Debye-Ang**3):
 XXXX=           -170.9925 YYYY=            -57.6381 ZZZZ=            -39.1369 XXXY=              0.1681
 XXXZ=             -1.2024 YYYX=              1.1048 YYYZ=             -0.4522 ZZZX=              0.9971
 ZZZY=             -1.4982 XXYY=            -35.6237 XXZZ=            -38.0420 YYZZ=            -16.1306
 XXYZ=              1.9300 YYXZ=              1.1108 ZZXY=              0.3756
 N-N= 1.247885347085D+02 E-N=-6.817393348568D+02  KE= 1.865956039858D+02
                          Isotropic Fermi Contact Couplings
        Atom                 a.u.       MegaHertz       Gauss      10(-4) cm-1
     1  C(13)              0.00019       0.21075       0.07520       0.07030
     2  C(13)              0.00005       0.05297       0.01890       0.01767
     3  C(13)              0.00473       5.31662       1.89710       1.77343
     4  O(17)              0.00007      -0.04458      -0.01591      -0.01487
     5  H(1)               0.00592      26.46967       9.44504       8.82933
     6  H(1)               0.00528      23.61726       8.42723       7.87787
     7  H(1)               0.00508      22.70729       8.10253       7.57434
     8  H(1)               0.00002       0.06780       0.02419       0.02262
     9  H(1)               0.00058       2.60158       0.92831       0.86779
    10  H(1)               0.00012       0.54729       0.19529       0.18256
 --------------------------------------------------------
       Center         ----  Spin Dipole Couplings  ----
                      3XX-RR        3YY-RR        3ZZ-RR
 --------------------------------------------------------
     1   Atom        0.013455     -0.017298      0.003844
     2   Atom       -0.035908      0.061963     -0.026054
     3   Atom        0.027138     -0.012965     -0.014173
     4   Atom       -0.333250     -1.234308      1.567558
     5   Atom       -0.004341     -0.012171      0.016512
     6   Atom       -0.003110      0.011710     -0.008601
     7   Atom       -0.014042      0.022270     -0.008229
     8   Atom        0.011335     -0.005086     -0.006249
     9   Atom        0.004125     -0.000763     -0.003362
    10   Atom        0.008524     -0.004810     -0.003715
 --------------------------------------------------------
                        XY            XZ            YZ
 --------------------------------------------------------
     1   Atom        0.042236      0.024028      0.024304
     2   Atom       -0.014346     -0.013205      0.009286
     3   Atom        0.012521     -0.005191     -0.000612
     4   Atom        0.378773     -1.747519     -0.638654
     5   Atom        0.005236      0.017471      0.007542
     6   Atom       -0.016125     -0.007984      0.011401
     7   Atom       -0.003896      0.001275     -0.013221
     8   Atom       -0.001445      0.001310     -0.000176
     9   Atom        0.005229      0.001816      0.001882
    10   Atom        0.008113     -0.006691     -0.003489
 --------------------------------------------------------


 ---------------------------------------------------------------------------------
              Anisotropic Spin Dipole Couplings in Principal Axis System
 ---------------------------------------------------------------------------------

       Atom             a.u.   MegaHertz   Gauss  10(-4) cm-1        Axes

              Baa    -0.0478    -6.418    -2.290    -2.141 -0.5190  0.8407 -0.1541
     1 C(13)  Bbb    -0.0146    -1.960    -0.699    -0.654 -0.5002 -0.1526  0.8524
              Bcc     0.0624     8.378     2.990     2.795  0.6931  0.5195  0.4997
 
              Baa    -0.0455    -6.106    -2.179    -2.037  0.8398  0.0655  0.5389
     2 C(13)  Bbb    -0.0199    -2.668    -0.952    -0.890 -0.5204 -0.1858  0.8335
              Bcc     0.0654     8.774     3.131     2.927 -0.1547  0.9804  0.1219
 
              Baa    -0.0169    -2.266    -0.808    -0.756 -0.2943  0.8836 -0.3642
     3 C(13)  Bbb    -0.0144    -1.936    -0.691    -0.646  0.0006  0.3812  0.9245
              Bcc     0.0313     4.202     1.499     1.402  0.9557  0.2718 -0.1127
 
              Baa    -1.3733    99.372    35.459    33.147  0.3668  0.8397  0.4003
     4 O(17)  Bbb    -1.3716    99.251    35.415    33.106  0.7830 -0.5111  0.3545
              Bcc     2.7450  -198.623   -70.874   -66.253 -0.5023 -0.1834  0.8450
 
              Baa    -0.0151    -8.032    -2.866    -2.679  0.6956 -0.6834 -0.2217
     5 H(1)   Bbb    -0.0134    -7.168    -2.558    -2.391  0.5297  0.6963 -0.4844
              Bcc     0.0285    15.200     5.424     5.070  0.4854  0.2195  0.8463
 
              Baa    -0.0143    -7.630    -2.723    -2.545  0.6083  0.0295  0.7931
     6 H(1)   Bbb    -0.0131    -6.999    -2.497    -2.335  0.6101  0.6218 -0.4910
              Bcc     0.0274    14.629     5.220     4.880 -0.5076  0.7826  0.3603
 
              Baa    -0.0145    -7.718    -2.754    -2.575  0.9872  0.1352  0.0849
     7 H(1)   Bbb    -0.0131    -7.011    -2.502    -2.339 -0.1261  0.3348  0.9338
              Bcc     0.0276    14.729     5.256     4.913 -0.0979  0.9325 -0.3475
 
              Baa    -0.0064    -3.388    -1.209    -1.130 -0.0689  0.0596  0.9958
     8 H(1)   Bbb    -0.0052    -2.780    -0.992    -0.927  0.0911  0.9944 -0.0532
              Bcc     0.0116     6.168     2.201     2.057  0.9935 -0.0870  0.0739
 
              Baa    -0.0046    -2.462    -0.879    -0.821 -0.2901  0.7083 -0.6436
     9 H(1)   Bbb    -0.0034    -1.818    -0.649    -0.607 -0.4980  0.4625  0.7335
              Bcc     0.0080     4.281     1.527     1.428  0.8172  0.5332  0.2185
 
              Baa    -0.0087    -4.633    -1.653    -1.545 -0.3813  0.9154  0.1293
    10 H(1)   Bbb    -0.0067    -3.554    -1.268    -1.185  0.3887  0.0319  0.9208
              Bcc     0.0153     8.186     2.921     2.731  0.8387  0.4014 -0.3680
 

 ---------------------------------------------------------------------------------

 No NMR shielding tensors so no spin-rotation constants.
 Leave Link  601 at Fri Oct  2 16:04:04 2015, MaxMem=    33554432 cpu:               0.2 elap:               0.2
 (Enter /home/gauss/gdvi03p/gdv/l9999.exe)
 Unable to Open any file for archive entry.
 1\1\GINC-MEDUSA\SP\ROHF\STO-3G\C3H6O1(1+,2)\PLESTRAN\02-Oct-2015\0\\#p
  rohf/sto-3g nosymm Field=X-100\\S-Propylene Oxide STO-3G\\1,2\C,0,0.1
 52133,-0.0358,0.485797\C,0,-1.039475,0.615938,-0.061249\C,0,1.507144,0
 .097806,-0.14846\O,0,-0.828215,-0.788248,-0.239431\H,0,0.153725,-0.249
 258,1.552136\H,0,-1.863178,0.881921,0.593333\H,0,-0.949807,1.21421,-0.
 962771\H,0,2.076806,-0.826189,-0.036671\H,0,2.074465,0.901788,0.325106
 \H,0,1.414895,0.315852,-1.212218\\Version=ES64L-GDVRevI.03+\HF=-189.26
 34595\EFC=0.\RMSD=4.994e-09\Dipole=-0.3393335,0.2730747,0.2554696\Quad
 rupole=2.1549595,-1.6131284,-0.5418311,-0.9597437,-0.1383473,-0.706993
 7\PG=C01 [X(C3H6O1)]\\@
 The archive entry for this job was punched.


 NEVER LISTEN TO CRITICISM
 OR YOU'LL BE DOIN' EVERYBODY ELSE'S THING BUT BUT YOUR OWN.

                                               -- ANDY CAPP
 Job cpu time:       0 days  0 hours  0 minutes  0.9 seconds.
 Elapsed time:       0 days  0 hours  0 minutes  1.1 seconds.
 File lengths (MBytes):  RWF=      5 Int=      0 D2E=      0 Chk=      1 Scr=      1
 Normal termination of Gaussian DV at Fri Oct  2 16:04:04 2015.
