 Entering Gaussian System, Link 0=gdv
 Input=propylene-oxide_ccpVDZ_ROHF.com
 Output=propylene-oxide_ccpVDZ_ROHF.log
 Initial command:
 /home/gauss/gdvi03p/gdv/l1.exe "/home/GauScr/Gau-15863.inp" -scrdir="/home/GauScr/"
 Entering Link 1 = /home/gauss/gdvi03p/gdv/l1.exe PID=     15864.
  
 Copyright (c) 1988,1990,1992,1993,1995,1998,2003,2009,2015,
            Gaussian, Inc.  All Rights Reserved.
  
 This is the private, development version of
 the Gaussian(R) DV system of programs. It is based on
 the Gaussian(R) 09 system (copyright 2009, Gaussian, Inc.),
 the Gaussian(R) 03 system (copyright 2003, Gaussian, Inc.),
 the Gaussian(R) 98 system (copyright 1998, Gaussian, Inc.),
 the Gaussian(R) 94 system (copyright 1995, Gaussian, Inc.),
 the Gaussian 92(TM) system (copyright 1992, Gaussian, Inc.),
 the Gaussian 90(TM) system (copyright 1990, Gaussian, Inc.),
 the Gaussian 88(TM) system (copyright 1988, Gaussian, Inc.),
 the Gaussian 86(TM) system (copyright 1986, Carnegie Mellon
 University), and the Gaussian 82(TM) system (copyright 1983,
 Carnegie Mellon University). Gaussian is a federally registered
 trademark of Gaussian, Inc.
  
 This software contains proprietary and confidential information,
 including trade secrets, belonging to Gaussian, Inc.
  
 This software is provided under written license and may be
 used, copied, transmitted, or stored only in accord with that
 written license.
  
 The following legend is applicable only to US Government
 contracts under FAR:
  
                    RESTRICTED RIGHTS LEGEND
  
 Use, reproduction and disclosure by the US Government is
 subject to restrictions as set forth in subparagraphs (a)
 and (c) of the Commercial Computer Software - Restricted
 Rights clause in FAR 52.227-19.
  
 Gaussian, Inc.
 340 Quinnipiac St., Bldg. 40, Wallingford CT 06492
  
  
 ---------------------------------------------------------------
 Warning -- This program may not be used in any manner that
 competes with the business of Gaussian, Inc. or will provide
 assistance to any competitor of Gaussian, Inc.  The licensee
 of this program is prohibited from giving any competitor of
 Gaussian, Inc. access to this program.  By using this program,
 the user acknowledges that Gaussian, Inc. is engaged in the
 business of creating and licensing software in the field of
 computational chemistry and represents and warrants to the
 licensee that it is not a competitor of Gaussian, Inc. and that
 it will not use this program in any manner prohibited above.
 ---------------------------------------------------------------
  

 Cite this work as:
 Gaussian Development Version, Revision I.03+,
 M. J. Frisch, G. W. Trucks, H. B. Schlegel, G. E. Scuseria, 
 M. A. Robb, J. R. Cheeseman, G. Scalmani, V. Barone, B. Mennucci, 
 G. A. Petersson, H. Nakatsuji, M. Caricato, X. Li, H. P. Hratchian, 
 J. Bloino, B. G. Janesko, A. F. Izmaylov, A. Marenich, F. Lipparini, 
 G. Zheng, J. L. Sonnenberg, W. Liang, M. Hada, M. Ehara, K. Toyota, 
 R. Fukuda, J. Hasegawa, M. Ishida, T. Nakajima, Y. Honda, O. Kitao, 
 H. Nakai, T. Vreven, K. Throssell, J. A. Montgomery, Jr., 
 J. E. Peralta, F. Ogliaro, M. Bearpark, J. J. Heyd, E. Brothers, 
 K. N. Kudin, V. N. Staroverov, T. Keith, R. Kobayashi, J. Normand, 
 K. Raghavachari, A. Rendell, J. C. Burant, S. S. Iyengar, J. Tomasi, 
 M. Cossi, N. Rega, J. M. Millam, M. Klene, J. E. Knox, J. B. Cross, 
 V. Bakken, C. Adamo, J. Jaramillo, R. Gomperts, R. E. Stratmann, 
 O. Yazyev, A. J. Austin, R. Cammi, C. Pomelli, J. W. Ochterski, 
 R. L. Martin, K. Morokuma, V. G. Zakrzewski, G. A. Voth, 
 P. Salvador, J. J. Dannenberg, S. Dapprich, P. V. Parandekar, 
 N. J. Mayhall, A. D. Daniels, O. Farkas, J. B. Foresman, 
 J. V. Ortiz, J. Cioslowski, and D. J. Fox, 
 Gaussian, Inc., Wallingford CT, 2014.
 
 *******************************************
 Gaussian DV:  ES64L-GDVRevI.03+  2-May-2015
                  2-Oct-2015 
 *******************************************
 ----------------------
 #p rohf/cc-pVDZ nosymm
 ----------------------
 1/38=1,172=1/1;
 2/12=2,15=1,17=6,18=5,40=1/2;
 3/5=16,11=2,25=1,30=1,116=101/1,2,3;
 4//1;
 5/5=2,38=5/2;
 6/7=2,8=2,9=2,10=2,28=1/1;
 99/5=1,9=1/99;
 Leave Link    1 at Fri Oct  2 15:46:16 2015, MaxMem=           0 cpu:               0.0 elap:               0.0
 (Enter /home/gauss/gdvi03p/gdv/l101.exe)
 -------------------------
 S-Propylene Oxide cc-pVDZ
 -------------------------
 Symbolic Z-matrix:
 Charge =  1 Multiplicity = 2
 C                     0.15213  -0.0358    0.4858 
 C                    -1.03947   0.61594  -0.06125 
 C                     1.50714   0.09781  -0.14846 
 O                    -0.82822  -0.78825  -0.23943 
 H                     0.15373  -0.24926   1.55214 
 H                    -1.86318   0.88192   0.59333 
 H                    -0.94981   1.21421  -0.96277 
 H                     2.07681  -0.82619  -0.03667 
 H                     2.07447   0.90179   0.32511 
 H                     1.4149    0.31585  -1.21222 
 
 ITRead=  0  0  0  0  0  0  0  0  0  0
 MicOpt= -1 -1 -1 -1 -1 -1 -1 -1 -1 -1
 NAtoms=     10 NQM=       10 NQMF=       0 NMMI=      0 NMMIF=      0
                NMic=       0 NMicF=      0.
                    Isotopes and Nuclear Properties:
 (Nuclear quadrupole moments (NQMom) in fm**2, nuclear magnetic moments (NMagM)
  in nuclear magnetons)

  Atom         1           2           3           4           5           6           7           8           9          10
 IAtWgt=          12          12          12          16           1           1           1           1           1           1
 AtmWgt=  12.0000000  12.0000000  12.0000000  15.9949146   1.0078250   1.0078250   1.0078250   1.0078250   1.0078250   1.0078250
 NucSpn=           0           0           0           0           1           1           1           1           1           1
 AtZEff=   0.0000000   0.0000000   0.0000000   0.0000000   0.0000000   0.0000000   0.0000000   0.0000000   0.0000000   0.0000000
 NQMom=    0.0000000   0.0000000   0.0000000   0.0000000   0.0000000   0.0000000   0.0000000   0.0000000   0.0000000   0.0000000
 NMagM=    0.0000000   0.0000000   0.0000000   0.0000000   2.7928460   2.7928460   2.7928460   2.7928460   2.7928460   2.7928460
 AtZNuc=   6.0000000   6.0000000   6.0000000   8.0000000   1.0000000   1.0000000   1.0000000   1.0000000   1.0000000   1.0000000
 Leave Link  101 at Fri Oct  2 15:46:16 2015, MaxMem=    33554432 cpu:               0.1 elap:               0.1
 (Enter /home/gauss/gdvi03p/gdv/l202.exe)
                          Input orientation:                          
 ---------------------------------------------------------------------
 Center     Atomic      Atomic             Coordinates (Angstroms)
 Number     Number       Type             X           Y           Z
 ---------------------------------------------------------------------
      1          6           0        0.152133   -0.035800    0.485797
      2          6           0       -1.039475    0.615938   -0.061249
      3          6           0        1.507144    0.097806   -0.148460
      4          8           0       -0.828215   -0.788248   -0.239431
      5          1           0        0.153725   -0.249258    1.552136
      6          1           0       -1.863178    0.881921    0.593333
      7          1           0       -0.949807    1.214210   -0.962771
      8          1           0        2.076806   -0.826189   -0.036671
      9          1           0        2.074465    0.901788    0.325106
     10          1           0        1.414895    0.315852   -1.212218
 ---------------------------------------------------------------------
                    Distance matrix (angstroms):
                    1          2          3          4          5
     1  C    0.000000
     2  C    1.464224   0.000000
     3  C    1.502061   2.600257   0.000000
     4  O    1.432905   1.431125   2.499454   0.000000
     5  H    1.087495   2.185246   2.200960   2.112919   0.000000
     6  H    2.217037   1.085224   3.538950   2.134036   2.503351
     7  H    2.207973   1.085685   2.818877   2.132567   3.111957
     8  H    2.145240   3.433881   1.091228   2.912336   2.560351
     9  H    2.144820   3.150810   1.092019   3.405947   2.553380
    10  H    2.145107   2.727400   1.089787   2.682703   3.090559
                    6          7          8          9         10
     6  H    0.000000
     7  H    1.834699   0.000000
     8  H    4.340279   3.765803   0.000000
     9  H    3.946818   3.301887   1.765444   0.000000
    10  H    3.784998   2.541867   1.767567   1.772489   0.000000
 Symmetry turned off by external request.
 Stoichiometry    C3H6O(1+,2)
 Framework group  C1[X(C3H6O)]
 Deg. of freedom    24
 Full point group                 C1      NOp   1
 Rotational constants (GHZ):     18.2269979      6.6669563      5.9403328
 Leave Link  202 at Fri Oct  2 15:46:16 2015, MaxMem=    33554432 cpu:               0.0 elap:               0.0
 (Enter /home/gauss/gdvi03p/gdv/l301.exe)
 Standard basis: CC-pVDZ (5D, 7F)
 Ernie: Thresh=  0.10000D-02 Tol=  0.10000D-05 Strict=F.
 Ernie:  8 primitive shells out of 118 were deleted.
    86 basis functions,   174 primitive gaussians,    90 cartesian basis functions
    16 alpha electrons       15 beta electrons
       nuclear repulsion energy       124.7885346707 Hartrees.
 IExCor=    0 DFT=F Ex=HF Corr=None ExCW=0 ScaHFX=  1.000000
 ScaDFX=  1.000000  1.000000  1.000000  1.000000 ScalE2=  1.000000  1.000000
 IRadAn=      0 IRanWt=     -1 IRanGd=            0 ICorTp=0 IEmpDi=  4
 NAtoms=   10 NActive=   10 NUniq=   10 SFac= 1.00D+00 NAtFMM=   60 NAOKFM=F Big=F
 Integral buffers will be    131072 words long.
 Raffenetti 2 integral format.
 Two-electron integral symmetry is turned off.
 Leave Link  301 at Fri Oct  2 15:46:16 2015, MaxMem=    33554432 cpu:               0.1 elap:               0.1
 (Enter /home/gauss/gdvi03p/gdv/l302.exe)
 NPDir=0 NMtPBC=     1 NCelOv=     1 NCel=       1 NClECP=     1 NCelD=      1
         NCelK=      1 NCelE2=     1 NClLst=     1 CellRange=     0.0.
 One-electron integrals computed using PRISM.
 One-electron integral symmetry used in STVInt
 NBasis=    86 RedAO= T EigKep=  3.18D-03  NBF=    86
 NBsUse=    86 1.00D-06 EigRej= -1.00D+00 NBFU=    86
 Leave Link  302 at Fri Oct  2 15:46:17 2015, MaxMem=    33554432 cpu:               0.1 elap:               0.1
 (Enter /home/gauss/gdvi03p/gdv/l303.exe)
 DipDrv:  MaxL=1.
 Leave Link  303 at Fri Oct  2 15:46:17 2015, MaxMem=    33554432 cpu:               0.0 elap:               0.0
 (Enter /home/gauss/gdvi03p/gdv/l401.exe)
 ExpMin= 1.22D-01 ExpMax= 1.17D+04 ExpMxC= 4.01D+02 IAcc=1 IRadAn=         1 AccDes= 0.00D+00
 Harris functional with IExCor=  205 and IRadAn=       1 diagonalized for initial guess.
 HarFok:  IExCor=  205 AccDes= 0.00D+00 IRadAn=         1 IDoV= 1 UseB2=F ITyADJ=14
 ICtDFT=  3500011 ScaDFX=  1.000000  1.000000  1.000000  1.000000
 FoFCou: FMM=F IPFlag=           0 FMFlag=      100000 FMFlg1=           0
         NFxFlg=           0 DoJE=T BraDBF=F KetDBF=T FulRan=T
         wScrn=  0.000000 ICntrl=       500 IOpCl=  0 I1Cent=   200000004 NGrid=           0
         NMat0=    1 NMatS0=      1 NMatT0=    0 NMatD0=    1 NMtDS0=    0 NMtDT0=    0
 Symmetry not used in FoFCou.
 Harris En= -191.831962805942    
 JPrj=0 DoOrth=F DoCkMO=F.
 Leave Link  401 at Fri Oct  2 15:46:17 2015, MaxMem=    33554432 cpu:               0.3 elap:               0.3
 (Enter /home/gauss/gdvi03p/gdv/l502.exe)
 Keep R1 and R2 ints in memory in canonical form, NReq=14901755.
 FoFCou: FMM=F IPFlag=           0 FMFlag=           0 FMFlg1=           0
         NFxFlg=           0 DoJE=F BraDBF=F KetDBF=F FulRan=T
         wScrn=  0.000000 ICntrl=       600 IOpCl=  0 I1Cent=           0 NGrid=           0
         NMat0=    1 NMatS0=   3741 NMatT0=    0 NMatD0=    1 NMtDS0=    0 NMtDT0=    0
 Symmetry not used in FoFCou.
 Two-electron integral symmetry not used.
 Restricted open shell SCF:
 Using DIIS extrapolation, IDIIS=  1040.
 NGot=    33554432 LenX=    19537938 LenY=    19529397
 Requested convergence on RMS density matrix=1.00D-08 within 128 cycles.
 Requested convergence on MAX density matrix=1.00D-06.
 Requested convergence on             energy=1.00D-06.
 No special actions if energy rises.

 Cycle   1  Pass 1  IDiag  1:
 E= -191.413464134545    
 DIIS: error= 3.34D-02 at cycle   1 NSaved=   1.
 NSaved= 1 IEnMin= 1 EnMin= -191.413464134545     IErMin= 1 ErrMin= 3.34D-02
 ErrMax= 3.34D-02  0.00D+00 EMaxC= 1.00D-01 BMatC= 2.20D-01 BMatP= 2.20D-01
 IDIUse=3 WtCom= 6.66D-01 WtEn= 3.34D-01
 Coeff-Com:  0.100D+01
 Coeff-En:   0.100D+01
 Coeff:      0.100D+01
 Gap=     0.467 Goal=   None    Shift=    0.000
 GapD=    0.467 DampG=2.000 DampE=0.500 DampFc=1.0000 IDamp=-1.
 RMSDP=6.48D-03 MaxDP=1.04D-01              OVMax= 1.60D-01

 Cycle   2  Pass 1  IDiag  1:
 E= -191.523096374219     Delta-E=       -0.109632239673 Rises=F Damp=F
 DIIS: error= 2.63D-02 at cycle   2 NSaved=   2.
 NSaved= 2 IEnMin= 2 EnMin= -191.523096374219     IErMin= 2 ErrMin= 2.63D-02
 ErrMax= 2.63D-02  0.00D+00 EMaxC= 1.00D-01 BMatC= 6.43D-02 BMatP= 2.20D-01
 IDIUse=3 WtCom= 7.37D-01 WtEn= 2.63D-01
 Coeff-Com:  0.319D+00 0.681D+00
 Coeff-En:   0.832D-01 0.917D+00
 Coeff:      0.257D+00 0.743D+00
 Gap=     0.347 Goal=   None    Shift=    0.000
 RMSDP=3.27D-03 MaxDP=8.21D-02 DE=-1.10D-01 OVMax= 1.16D-01

 Cycle   3  Pass 1  IDiag  1:
 E= -191.578207095974     Delta-E=       -0.055110721756 Rises=F Damp=F
 DIIS: error= 1.45D-02 at cycle   3 NSaved=   3.
 NSaved= 3 IEnMin= 3 EnMin= -191.578207095974     IErMin= 3 ErrMin= 1.45D-02
 ErrMax= 1.45D-02  0.00D+00 EMaxC= 1.00D-01 BMatC= 1.53D-02 BMatP= 6.43D-02
 IDIUse=3 WtCom= 8.55D-01 WtEn= 1.45D-01
 Coeff-Com:  0.928D-03 0.318D+00 0.681D+00
 Coeff-En:   0.000D+00 0.000D+00 0.100D+01
 Coeff:      0.794D-03 0.272D+00 0.727D+00
 Gap=     0.368 Goal=   None    Shift=    0.000
 RMSDP=1.51D-03 MaxDP=3.88D-02 DE=-5.51D-02 OVMax= 5.89D-02

 Cycle   4  Pass 1  IDiag  1:
 E= -191.590199295335     Delta-E=       -0.011992199361 Rises=F Damp=F
 DIIS: error= 1.19D-03 at cycle   4 NSaved=   4.
 NSaved= 4 IEnMin= 4 EnMin= -191.590199295335     IErMin= 4 ErrMin= 1.19D-03
 ErrMax= 1.19D-03  0.00D+00 EMaxC= 1.00D-01 BMatC= 2.94D-04 BMatP= 1.53D-02
 IDIUse=3 WtCom= 9.88D-01 WtEn= 1.19D-02
 Coeff-Com: -0.159D-01 0.379D-01 0.141D+00 0.837D+00
 Coeff-En:   0.000D+00 0.000D+00 0.000D+00 0.100D+01
 Coeff:     -0.157D-01 0.374D-01 0.140D+00 0.839D+00
 Gap=     0.361 Goal=   None    Shift=    0.000
 RMSDP=5.85D-04 MaxDP=1.54D-02 DE=-1.20D-02 OVMax= 1.79D-02

 Cycle   5  Pass 1  IDiag  1:
 E= -191.591333627206     Delta-E=       -0.001134331871 Rises=F Damp=F
 DIIS: error= 9.98D-04 at cycle   5 NSaved=   5.
 NSaved= 5 IEnMin= 5 EnMin= -191.591333627206     IErMin= 5 ErrMin= 9.98D-04
 ErrMax= 9.98D-04  0.00D+00 EMaxC= 1.00D-01 BMatC= 1.26D-04 BMatP= 2.94D-04
 IDIUse=3 WtCom= 9.90D-01 WtEn= 9.98D-03
 Coeff-Com: -0.103D-02-0.123D-01-0.835D-01 0.129D+00 0.968D+00
 Coeff-En:   0.000D+00 0.000D+00 0.000D+00 0.000D+00 0.100D+01
 Coeff:     -0.102D-02-0.121D-01-0.826D-01 0.127D+00 0.968D+00
 Gap=     0.363 Goal=   None    Shift=    0.000
 RMSDP=3.44D-04 MaxDP=8.63D-03 DE=-1.13D-03 OVMax= 1.10D-02

 Cycle   6  Pass 1  IDiag  1:
 E= -191.591662150616     Delta-E=       -0.000328523410 Rises=F Damp=F
 DIIS: error= 3.22D-04 at cycle   6 NSaved=   6.
 NSaved= 6 IEnMin= 6 EnMin= -191.591662150616     IErMin= 6 ErrMin= 3.22D-04
 ErrMax= 3.22D-04  0.00D+00 EMaxC= 1.00D-01 BMatC= 1.92D-05 BMatP= 1.26D-04
 IDIUse=3 WtCom= 9.97D-01 WtEn= 3.22D-03
 Coeff-Com:  0.426D-02-0.109D-01-0.691D-01-0.165D+00 0.321D+00 0.920D+00
 Coeff-En:   0.000D+00 0.000D+00 0.000D+00 0.000D+00 0.000D+00 0.100D+01
 Coeff:      0.424D-02-0.109D-01-0.689D-01-0.165D+00 0.320D+00 0.920D+00
 Gap=     0.364 Goal=   None    Shift=    0.000
 RMSDP=1.51D-04 MaxDP=3.52D-03 DE=-3.29D-04 OVMax= 4.36D-03

 Cycle   7  Pass 1  IDiag  1:
 E= -191.591724451499     Delta-E=       -0.000062300884 Rises=F Damp=F
 DIIS: error= 1.57D-04 at cycle   7 NSaved=   7.
 NSaved= 7 IEnMin= 7 EnMin= -191.591724451499     IErMin= 7 ErrMin= 1.57D-04
 ErrMax= 1.57D-04  0.00D+00 EMaxC= 1.00D-01 BMatC= 1.96D-06 BMatP= 1.92D-05
 IDIUse=3 WtCom= 9.98D-01 WtEn= 1.57D-03
 Coeff-Com: -0.690D-05 0.128D-02 0.143D-01-0.900D-02-0.100D+00 0.906D-01
 Coeff-Com:  0.100D+01
 Coeff-En:   0.000D+00 0.000D+00 0.000D+00 0.000D+00 0.000D+00 0.000D+00
 Coeff-En:   0.100D+01
 Coeff:     -0.688D-05 0.128D-02 0.143D-01-0.898D-02-0.999D-01 0.905D-01
 Coeff:      0.100D+01
 Gap=     0.364 Goal=   None    Shift=    0.000
 RMSDP=4.87D-05 MaxDP=9.45D-04 DE=-6.23D-05 OVMax= 1.39D-03

 Cycle   8  Pass 1  IDiag  1:
 E= -191.591735706977     Delta-E=       -0.000011255478 Rises=F Damp=F
 DIIS: error= 5.43D-05 at cycle   8 NSaved=   8.
 NSaved= 8 IEnMin= 8 EnMin= -191.591735706977     IErMin= 8 ErrMin= 5.43D-05
 ErrMax= 5.43D-05  0.00D+00 EMaxC= 1.00D-01 BMatC= 4.59D-07 BMatP= 1.96D-06
 IDIUse=1 WtCom= 1.00D+00 WtEn= 0.00D+00
 Coeff-Com: -0.519D-03 0.143D-02 0.122D-01 0.174D-01-0.581D-01-0.486D-01
 Coeff-Com:  0.328D+00 0.748D+00
 Coeff:     -0.519D-03 0.143D-02 0.122D-01 0.174D-01-0.581D-01-0.486D-01
 Coeff:      0.328D+00 0.748D+00
 Gap=     0.364 Goal=   None    Shift=    0.000
 RMSDP=2.56D-05 MaxDP=6.60D-04 DE=-1.13D-05 OVMax= 5.95D-04

 Cycle   9  Pass 1  IDiag  1:
 E= -191.591740970768     Delta-E=       -0.000005263791 Rises=F Damp=F
 DIIS: error= 4.35D-05 at cycle   9 NSaved=   9.
 NSaved= 9 IEnMin= 9 EnMin= -191.591740970768     IErMin= 9 ErrMin= 4.35D-05
 ErrMax= 4.35D-05  0.00D+00 EMaxC= 1.00D-01 BMatC= 1.79D-07 BMatP= 4.59D-07
 IDIUse=1 WtCom= 1.00D+00 WtEn= 0.00D+00
 Coeff-Com: -0.119D-03 0.154D-03-0.496D-04 0.658D-02 0.165D-02-0.268D-01
 Coeff-Com: -0.106D+00 0.294D-01 0.110D+01
 Coeff:     -0.119D-03 0.154D-03-0.496D-04 0.658D-02 0.165D-02-0.268D-01
 Coeff:     -0.106D+00 0.294D-01 0.110D+01
 Gap=     0.364 Goal=   None    Shift=    0.000
 RMSDP=2.41D-05 MaxDP=6.58D-04 DE=-5.26D-06 OVMax= 2.81D-04

 Cycle  10  Pass 1  IDiag  1:
 E= -191.591746622018     Delta-E=       -0.000005651250 Rises=F Damp=F
 DIIS: error= 3.55D-05 at cycle  10 NSaved=  10.
 NSaved=10 IEnMin=10 EnMin= -191.591746622018     IErMin=10 ErrMin= 3.55D-05
 ErrMax= 3.55D-05  0.00D+00 EMaxC= 1.00D-01 BMatC= 1.12D-07 BMatP= 1.79D-07
 IDIUse=1 WtCom= 1.00D+00 WtEn= 0.00D+00
 Coeff-Com:  0.119D-03-0.103D-03-0.308D-02-0.313D-02 0.636D-02-0.216D-02
 Coeff-Com: -0.645D-01-0.480D+00-0.445D+00 0.199D+01
 Coeff:      0.119D-03-0.103D-03-0.308D-02-0.313D-02 0.636D-02-0.216D-02
 Coeff:     -0.645D-01-0.480D+00-0.445D+00 0.199D+01
 Gap=     0.364 Goal=   None    Shift=    0.000
 RMSDP=4.46D-05 MaxDP=1.27D-03 DE=-5.65D-06 OVMax= 3.89D-04

 Cycle  11  Pass 1  IDiag  1:
 E= -191.591754156319     Delta-E=       -0.000007534300 Rises=F Damp=F
 DIIS: error= 2.89D-05 at cycle  11 NSaved=  11.
 NSaved=11 IEnMin=11 EnMin= -191.591754156319     IErMin=11 ErrMin= 2.89D-05
 ErrMax= 2.89D-05  0.00D+00 EMaxC= 1.00D-01 BMatC= 4.40D-08 BMatP= 1.12D-07
 IDIUse=1 WtCom= 1.00D+00 WtEn= 0.00D+00
 Coeff-Com: -0.298D-04 0.249D-03 0.177D-02 0.657D-03-0.113D-01-0.141D-02
 Coeff-Com:  0.108D+00-0.104D+00-0.848D+00 0.506D+00 0.135D+01
 Coeff:     -0.298D-04 0.249D-03 0.177D-02 0.657D-03-0.113D-01-0.141D-02
 Coeff:      0.108D+00-0.104D+00-0.848D+00 0.506D+00 0.135D+01
 Gap=     0.364 Goal=   None    Shift=    0.000
 RMSDP=3.65D-05 MaxDP=1.04D-03 DE=-7.53D-06 OVMax= 2.92D-04

 Cycle  12  Pass 1  IDiag  1:
 E= -191.591757118842     Delta-E=       -0.000002962523 Rises=F Damp=F
 DIIS: error= 1.59D-05 at cycle  12 NSaved=  12.
 NSaved=12 IEnMin=12 EnMin= -191.591757118842     IErMin=12 ErrMin= 1.59D-05
 ErrMax= 1.59D-05  0.00D+00 EMaxC= 1.00D-01 BMatC= 1.01D-08 BMatP= 4.40D-08
 IDIUse=1 WtCom= 1.00D+00 WtEn= 0.00D+00
 Coeff-Com: -0.538D-04 0.115D-03 0.179D-02 0.165D-02-0.680D-02 0.262D-02
 Coeff-Com:  0.712D-01 0.850D-01-0.197D+00-0.335D+00 0.328D+00 0.105D+01
 Coeff:     -0.538D-04 0.115D-03 0.179D-02 0.165D-02-0.680D-02 0.262D-02
 Coeff:      0.712D-01 0.850D-01-0.197D+00-0.335D+00 0.328D+00 0.105D+01
 Gap=     0.364 Goal=   None    Shift=    0.000
 RMSDP=1.53D-05 MaxDP=4.42D-04 DE=-2.96D-06 OVMax= 1.18D-04

 Cycle  13  Pass 1  IDiag  1:
 E= -191.591757517684     Delta-E=       -0.000000398842 Rises=F Damp=F
 DIIS: error= 5.31D-06 at cycle  13 NSaved=  13.
 NSaved=13 IEnMin=13 EnMin= -191.591757517684     IErMin=13 ErrMin= 5.31D-06
 ErrMax= 5.31D-06  0.00D+00 EMaxC= 1.00D-01 BMatC= 1.50D-09 BMatP= 1.01D-08
 IDIUse=1 WtCom= 1.00D+00 WtEn= 0.00D+00
 Coeff-Com: -0.256D-05-0.483D-04-0.519D-04-0.121D-04 0.613D-03 0.276D-02
 Coeff-Com: -0.559D-02 0.130D-01 0.123D+00-0.651D-01-0.281D+00 0.109D+00
 Coeff-Com:  0.110D+01
 Coeff:     -0.256D-05-0.483D-04-0.519D-04-0.121D-04 0.613D-03 0.276D-02
 Coeff:     -0.559D-02 0.130D-01 0.123D+00-0.651D-01-0.281D+00 0.109D+00
 Coeff:      0.110D+01
 Gap=     0.364 Goal=   None    Shift=    0.000
 RMSDP=3.32D-06 MaxDP=1.14D-04 DE=-3.99D-07 OVMax= 3.78D-05

 Cycle  14  Pass 1  IDiag  1:
 E= -191.591757545650     Delta-E=       -0.000000027966 Rises=F Damp=F
 DIIS: error= 1.38D-06 at cycle  14 NSaved=  14.
 NSaved=14 IEnMin=14 EnMin= -191.591757545650     IErMin=14 ErrMin= 1.38D-06
 ErrMax= 1.38D-06  0.00D+00 EMaxC= 1.00D-01 BMatC= 2.04D-10 BMatP= 1.50D-09
 IDIUse=1 WtCom= 1.00D+00 WtEn= 0.00D+00
 Coeff-Com:  0.379D-05-0.183D-05-0.101D-03-0.227D-03-0.107D-03-0.305D-03
 Coeff-Com: -0.360D-02-0.129D-01 0.441D-02 0.600D-01-0.340D-01-0.135D+00
 Coeff-Com:  0.731D-01 0.105D+01
 Coeff:      0.379D-05-0.183D-05-0.101D-03-0.227D-03-0.107D-03-0.305D-03
 Coeff:     -0.360D-02-0.129D-01 0.441D-02 0.600D-01-0.340D-01-0.135D+00
 Coeff:      0.731D-01 0.105D+01
 Gap=     0.364 Goal=   None    Shift=    0.000
 RMSDP=7.97D-07 MaxDP=3.09D-05 DE=-2.80D-08 OVMax= 1.44D-05

 Cycle  15  Pass 1  IDiag  1:
 E= -191.591757551668     Delta-E=       -0.000000006018 Rises=F Damp=F
 DIIS: error= 1.08D-06 at cycle  15 NSaved=  15.
 NSaved=15 IEnMin=15 EnMin= -191.591757551668     IErMin=15 ErrMin= 1.08D-06
 ErrMax= 1.08D-06  0.00D+00 EMaxC= 1.00D-01 BMatC= 7.21D-11 BMatP= 2.04D-10
 IDIUse=1 WtCom= 1.00D+00 WtEn= 0.00D+00
 Coeff-Com:  0.493D-07 0.131D-04 0.752D-05-0.102D-04-0.104D-03-0.575D-03
 Coeff-Com:  0.919D-04-0.342D-02-0.180D-01 0.163D-01 0.375D-01-0.399D-01
 Coeff-Com: -0.175D+00 0.584D-01 0.112D+01
 Coeff:      0.493D-07 0.131D-04 0.752D-05-0.102D-04-0.104D-03-0.575D-03
 Coeff:      0.919D-04-0.342D-02-0.180D-01 0.163D-01 0.375D-01-0.399D-01
 Coeff:     -0.175D+00 0.584D-01 0.112D+01
 Gap=     0.364 Goal=   None    Shift=    0.000
 RMSDP=7.52D-07 MaxDP=3.13D-05 DE=-6.02D-09 OVMax= 7.98D-06

 Cycle  16  Pass 1  IDiag  1:
 E= -191.591757555496     Delta-E=       -0.000000003828 Rises=F Damp=F
 DIIS: error= 7.83D-07 at cycle  16 NSaved=  16.
 NSaved=16 IEnMin=16 EnMin= -191.591757555496     IErMin=16 ErrMin= 7.83D-07
 ErrMax= 7.83D-07  0.00D+00 EMaxC= 1.00D-01 BMatC= 3.03D-11 BMatP= 7.21D-11
 IDIUse=1 WtCom= 1.00D+00 WtEn= 0.00D+00
 Coeff-Com: -0.174D-05 0.895D-06 0.209D-04 0.855D-04 0.234D-03 0.240D-03
 Coeff-Com:  0.232D-03 0.594D-02 0.607D-02-0.289D-01 0.347D-02 0.620D-01
 Coeff-Com:  0.666D-02-0.439D+00-0.212D+00 0.159D+01
 Coeff:     -0.174D-05 0.895D-06 0.209D-04 0.855D-04 0.234D-03 0.240D-03
 Coeff:      0.232D-03 0.594D-02 0.607D-02-0.289D-01 0.347D-02 0.620D-01
 Coeff:      0.666D-02-0.439D+00-0.212D+00 0.159D+01
 Gap=     0.364 Goal=   None    Shift=    0.000
 RMSDP=7.08D-07 MaxDP=2.96D-05 DE=-3.83D-09 OVMax= 1.06D-05

 Cycle  17  Pass 1  IDiag  1:
 E= -191.591757558128     Delta-E=       -0.000000002632 Rises=F Damp=F
 DIIS: error= 4.16D-07 at cycle  17 NSaved=  17.
 NSaved=17 IEnMin=17 EnMin= -191.591757558128     IErMin=17 ErrMin= 4.16D-07
 ErrMax= 4.16D-07  0.00D+00 EMaxC= 1.00D-01 BMatC= 1.13D-11 BMatP= 3.03D-11
 IDIUse=1 WtCom= 1.00D+00 WtEn= 0.00D+00
 Coeff-Com: -0.337D-06-0.533D-05-0.474D-05 0.170D-04 0.122D-03 0.344D-03
 Coeff-Com: -0.244D-03 0.362D-02 0.118D-01-0.173D-01-0.175D-01 0.403D-01
 Coeff-Com:  0.955D-01-0.122D+00-0.565D+00 0.315D+00 0.126D+01
 Coeff:     -0.337D-06-0.533D-05-0.474D-05 0.170D-04 0.122D-03 0.344D-03
 Coeff:     -0.244D-03 0.362D-02 0.118D-01-0.173D-01-0.175D-01 0.403D-01
 Coeff:      0.955D-01-0.122D+00-0.565D+00 0.315D+00 0.126D+01
 Gap=     0.364 Goal=   None    Shift=    0.000
 RMSDP=4.69D-07 MaxDP=1.78D-05 DE=-2.63D-09 OVMax= 6.08D-06

 Cycle  18  Pass 1  IDiag  1:
 E= -191.591757558904     Delta-E=       -0.000000000776 Rises=F Damp=F
 DIIS: error= 1.29D-07 at cycle  18 NSaved=  18.
 NSaved=18 IEnMin=18 EnMin= -191.591757558904     IErMin=18 ErrMin= 1.29D-07
 ErrMax= 1.29D-07  0.00D+00 EMaxC= 1.00D-01 BMatC= 1.78D-12 BMatP= 1.13D-11
 IDIUse=1 WtCom= 1.00D+00 WtEn= 0.00D+00
 Coeff-Com:  0.203D-06-0.710D-06-0.489D-05-0.963D-05-0.347D-04-0.331D-04
 Coeff-Com: -0.176D-03-0.178D-03 0.115D-02 0.819D-03-0.340D-02-0.459D-02
 Coeff-Com:  0.103D-01 0.625D-01-0.127D-01-0.315D+00 0.120D+00 0.114D+01
 Coeff:      0.203D-06-0.710D-06-0.489D-05-0.963D-05-0.347D-04-0.331D-04
 Coeff:     -0.176D-03-0.178D-03 0.115D-02 0.819D-03-0.340D-02-0.459D-02
 Coeff:      0.103D-01 0.625D-01-0.127D-01-0.315D+00 0.120D+00 0.114D+01
 Gap=     0.364 Goal=   None    Shift=    0.000
 RMSDP=2.04D-07 MaxDP=8.31D-06 DE=-7.76D-10 OVMax= 2.82D-06

 Cycle  19  Pass 1  IDiag  1:
 E= -191.591757559002     Delta-E=       -0.000000000097 Rises=F Damp=F
 DIIS: error= 4.47D-08 at cycle  19 NSaved=  19.
 NSaved=19 IEnMin=19 EnMin= -191.591757559002     IErMin=19 ErrMin= 4.47D-08
 ErrMax= 4.47D-08  0.00D+00 EMaxC= 1.00D-01 BMatC= 2.40D-13 BMatP= 1.78D-12
 IDIUse=1 WtCom= 1.00D+00 WtEn= 0.00D+00
 Coeff-Com:  0.268D-07 0.571D-06-0.187D-07-0.161D-05-0.170D-04-0.647D-04
 Coeff-Com: -0.447D-04-0.335D-03-0.111D-02 0.157D-02 0.183D-02-0.591D-02
 Coeff-Com: -0.141D-01 0.222D-01 0.936D-01-0.104D+00-0.189D+00 0.289D+00
 Coeff-Com:  0.906D+00
 Coeff:      0.268D-07 0.571D-06-0.187D-07-0.161D-05-0.170D-04-0.647D-04
 Coeff:     -0.447D-04-0.335D-03-0.111D-02 0.157D-02 0.183D-02-0.591D-02
 Coeff:     -0.141D-01 0.222D-01 0.936D-01-0.104D+00-0.189D+00 0.289D+00
 Coeff:      0.906D+00
 Gap=     0.364 Goal=   None    Shift=    0.000
 RMSDP=5.64D-08 MaxDP=2.24D-06 DE=-9.73D-11 OVMax= 7.82D-07

 Cycle  20  Pass 1  IDiag  1:
 E= -191.591757559004     Delta-E=       -0.000000000002 Rises=F Damp=F
 DIIS: error= 2.02D-08 at cycle  20 NSaved=  20.
 NSaved=20 IEnMin=20 EnMin= -191.591757559004     IErMin=20 ErrMin= 2.02D-08
 ErrMax= 2.02D-08  0.00D+00 EMaxC= 1.00D-01 BMatC= 2.72D-14 BMatP= 2.40D-13
 IDIUse=1 WtCom= 1.00D+00 WtEn= 0.00D+00
 Coeff-Com:  0.155D-07 0.334D-07 0.388D-07-0.389D-06 0.636D-05-0.102D-05
 Coeff-Com: -0.366D-05-0.272D-04-0.240D-03 0.117D-03 0.777D-03-0.324D-03
 Coeff-Com: -0.402D-02-0.346D-02 0.235D-01 0.165D-01-0.578D-01-0.747D-01
 Coeff-Com:  0.170D+00 0.930D+00
 Coeff:      0.155D-07 0.334D-07 0.388D-07-0.389D-06 0.636D-05-0.102D-05
 Coeff:     -0.366D-05-0.272D-04-0.240D-03 0.117D-03 0.777D-03-0.324D-03
 Coeff:     -0.402D-02-0.346D-02 0.235D-01 0.165D-01-0.578D-01-0.747D-01
 Coeff:      0.170D+00 0.930D+00
 Gap=     0.364 Goal=   None    Shift=    0.000
 RMSDP=1.17D-08 MaxDP=3.37D-07 DE=-2.27D-12 OVMax= 1.27D-07

 Cycle  21  Pass 1  IDiag  1:
 E= -191.591757559005     Delta-E=       -0.000000000001 Rises=F Damp=F
 DIIS: error= 5.06D-09 at cycle  21 NSaved=  20.
 NSaved=20 IEnMin=20 EnMin= -191.591757559005     IErMin=20 ErrMin= 5.06D-09
 ErrMax= 5.06D-09  0.00D+00 EMaxC= 1.00D-01 BMatC= 2.00D-15 BMatP= 2.72D-14
 IDIUse=1 WtCom= 1.00D+00 WtEn= 0.00D+00
 Large coefficients: NSaved= 20 BigCof=    0.00 CofMax=   10.00 Det=-7.26D-15
 Inversion failed.  Reducing to 19 matrices.
 Large coefficients: NSaved= 19 BigCof=    0.00 CofMax=   10.00 Det=-7.29D-15
 Inversion failed.  Reducing to 18 matrices.
 Large coefficients: NSaved= 18 BigCof=    0.00 CofMax=   10.00 Det=-7.29D-15
 Inversion failed.  Reducing to 17 matrices.
 Large coefficients: NSaved= 17 BigCof=    0.00 CofMax=   10.00 Det=-7.29D-15
 Inversion failed.  Reducing to 16 matrices.
 Large coefficients: NSaved= 16 BigCof=    0.00 CofMax=   10.00 Det=-8.30D-15
 Inversion failed.  Reducing to 15 matrices.
 Coeff-Com: -0.231D-05-0.294D-04-0.448D-04 0.123D-03 0.948D-04-0.739D-04
 Coeff-Com: -0.831D-04 0.697D-03-0.513D-04-0.233D-03 0.352D-02-0.745D-02
 Coeff-Com: -0.454D-01-0.269D-01 0.108D+01
 Coeff:     -0.231D-05-0.294D-04-0.448D-04 0.123D-03 0.948D-04-0.739D-04
 Coeff:     -0.831D-04 0.697D-03-0.513D-04-0.233D-03 0.352D-02-0.745D-02
 Coeff:     -0.454D-01-0.269D-01 0.108D+01
 Gap=     0.364 Goal=   None    Shift=    0.000
 RMSDP=4.50D-09 MaxDP=1.31D-07 DE=-9.66D-13 OVMax= 3.71D-08

 SCF Done:  E(ROHF) =  -191.591757559     A.U. after   21 cycles
            NFock= 21  Conv=0.45D-08     -V/T= 1.9999
 <Sx>= 0.0000 <Sy>= 0.0000 <Sz>= 0.5000 <S**2>= 0.7500 S= 0.5000
 <L.S>= 0.000000000000E+00
 KE= 1.916107323464D+02 PE=-6.900502335179D+02 EE= 1.820592089418D+02
 Annihilation of the first spin contaminant:
 S**2 before annihilation     0.7500,   after     0.7500
 Leave Link  502 at Fri Oct  2 15:46:19 2015, MaxMem=    33554432 cpu:               1.8 elap:               1.8
 (Enter /home/gauss/gdvi03p/gdv/l601.exe)
 Copying SCF densities to generalized density rwf, IOpCl= 0 IROHF=1.

 **********************************************************************

            Population analysis using the SCF density.

 **********************************************************************

 Alpha  occ. eigenvalues --  -20.98745 -11.56240 -11.56042 -11.44358  -1.75276
 Alpha  occ. eigenvalues --   -1.26346  -1.19124  -1.08782  -0.96484  -0.91883
 Alpha  occ. eigenvalues --   -0.87529  -0.79936  -0.77266  -0.74779  -0.70797
 Alpha  occ. eigenvalues --   -0.37335
 Alpha virt. eigenvalues --   -0.00932   0.00815   0.01696   0.02845   0.03728
 Alpha virt. eigenvalues --    0.07356   0.09006   0.09700   0.17463   0.24326
 Alpha virt. eigenvalues --    0.33959   0.37476   0.43918   0.45265   0.49321
 Alpha virt. eigenvalues --    0.50276   0.54227   0.56788   0.61173   0.63792
 Alpha virt. eigenvalues --    0.65193   0.67711   0.68420   0.72955   0.74990
 Alpha virt. eigenvalues --    0.77413   0.84370   0.86045   0.96848   1.05603
 Alpha virt. eigenvalues --    1.09329   1.12264   1.23931   1.25635   1.29464
 Alpha virt. eigenvalues --    1.41243   1.47359   1.48643   1.51319   1.53249
 Alpha virt. eigenvalues --    1.58080   1.65359   1.67333   1.68839   1.69568
 Alpha virt. eigenvalues --    1.72329   1.78190   1.79340   1.81762   1.82919
 Alpha virt. eigenvalues --    1.92104   1.95171   2.01138   2.11000   2.16222
 Alpha virt. eigenvalues --    2.26378   2.30754   2.33904   2.37363   2.56180
 Alpha virt. eigenvalues --    2.58194   2.59500   2.66357   2.71253   2.80512
 Alpha virt. eigenvalues --    2.82062   2.99943   3.05078   3.21070   3.29998
          Condensed to atoms (all electrons):
               1          2          3          4          5          6
     1  C    4.919597   0.352096   0.384931   0.099624   0.413363  -0.018531
     2  C    0.352096   4.594295  -0.059116   0.148533  -0.022077   0.408798
     3  C    0.384931  -0.059116   4.458613  -0.012051  -0.009834   0.001907
     4  O    0.099624   0.148533  -0.012051   7.718520  -0.009059  -0.004721
     5  H    0.413363  -0.022077  -0.009834  -0.009059   0.472747  -0.002794
     6  H   -0.018531   0.408798   0.001907  -0.004721  -0.002794   0.451089
     7  H   -0.020933   0.410816  -0.000952  -0.005430   0.001964  -0.010098
     8  H   -0.023263   0.004962   0.407870  -0.001011  -0.003318  -0.000109
     9  H   -0.022852  -0.001355   0.408818   0.001807  -0.002784   0.000008
    10  H   -0.027823  -0.003615   0.414166  -0.001431   0.004226   0.000129
               7          8          9         10
     1  C   -0.020933  -0.023263  -0.022852  -0.027823
     2  C    0.410816   0.004962  -0.001355  -0.003615
     3  C   -0.000952   0.407870   0.408818   0.414166
     4  O   -0.005430  -0.001011   0.001807  -0.001431
     5  H    0.001964  -0.003318  -0.002784   0.004226
     6  H   -0.010098  -0.000109   0.000008   0.000129
     7  H    0.454133   0.000039   0.000212   0.002196
     8  H    0.000039   0.528293  -0.009640  -0.017541
     9  H    0.000212  -0.009640   0.514634  -0.013633
    10  H    0.002196  -0.017541  -0.013633   0.563086
          Atomic-Atomic Spin Densities.
               1          2          3          4          5          6
     1  C    0.021450   0.004136   0.005623  -0.023349   0.005392   0.000496
     2  C    0.004136   0.014613   0.000420  -0.016498   0.000798   0.005860
     3  C    0.005623   0.000420   0.008576  -0.003826  -0.000765  -0.000086
     4  O   -0.023349  -0.016498  -0.003826   0.981778  -0.003481  -0.003703
     5  H    0.005392   0.000798  -0.000765  -0.003481   0.008147   0.000319
     6  H    0.000496   0.005860  -0.000086  -0.003703   0.000319   0.008680
     7  H    0.001476   0.005143   0.000236  -0.003825  -0.000101  -0.001153
     8  H   -0.000053  -0.000005   0.000021   0.000064   0.000020   0.000001
     9  H   -0.000984  -0.000086   0.000676   0.000169   0.000162   0.000014
    10  H   -0.001048  -0.000257  -0.000091   0.001275   0.000065   0.000021
               7          8          9         10
     1  C    0.001476  -0.000053  -0.000984  -0.001048
     2  C    0.005143  -0.000005  -0.000086  -0.000257
     3  C    0.000236   0.000021   0.000676  -0.000091
     4  O   -0.003825   0.000064   0.000169   0.001275
     5  H   -0.000101   0.000020   0.000162   0.000065
     6  H   -0.001153   0.000001   0.000014   0.000021
     7  H    0.008357  -0.000003  -0.000051  -0.000183
     8  H   -0.000003   0.000008   0.000032   0.000020
     9  H   -0.000051   0.000032   0.001639   0.000259
    10  H   -0.000183   0.000020   0.000259   0.000453
 Mulliken charges and spin densities:
               1          2
     1  C   -0.056210   0.013139
     2  C    0.166661   0.014124
     3  C    0.005648   0.010783
     4  O    0.065218   0.928603
     5  H    0.157565   0.010556
     6  H    0.174322   0.010449
     7  H    0.168053   0.009898
     8  H    0.113719   0.000105
     9  H    0.124784   0.001829
    10  H    0.080240   0.000513
 Sum of Mulliken charges =   1.00000   1.00000
 Mulliken charges and spin densities with hydrogens summed into heavy atoms:
               1          2
     1  C    0.101355   0.023696
     2  C    0.509036   0.034471
     3  C    0.324391   0.013230
     4  O    0.065218   0.928603
 Electronic spatial extent (au):  <R**2>=            252.3414
 Charge=              1.0000 electrons
 Dipole moment (field-independent basis, Debye):
    X=             -0.9721    Y=              1.3266    Z=              0.7752  Tot=              1.8182
 Quadrupole moment (field-independent basis, Debye-Ang):
   XX=            -14.8868   YY=            -20.5820   ZZ=            -19.2541
   XY=             -1.9810   XZ=             -0.3259   YZ=             -1.0190
 Traceless Quadrupole moment (field-independent basis, Debye-Ang):
   XX=              3.3541   YY=             -2.3410   ZZ=             -1.0131
   XY=             -1.9810   XZ=             -0.3259   YZ=             -1.0190
 Octapole moment (field-independent basis, Debye-Ang**2):
  XXX=             -3.2681  YYY=              0.0014  ZZZ=              1.0550  XYY=             -2.3668
  XXY=              3.2394  XXZ=              1.7230  XZZ=             -1.9170  YZZ=              0.2430
  YYZ=             -0.4737  XYZ=              0.5434
 Hexadecapole moment (field-independent basis, Debye-Ang**3):
 XXXX=           -169.1224 YYYY=            -59.7589 ZZZZ=            -39.2252 XXXY=             -2.7536
 XXXZ=             -3.0017 YYYX=             -1.8102 YYYZ=             -1.0983 ZZZX=              0.7549
 ZZZY=             -2.2093 XXYY=            -35.4326 XXZZ=            -38.1986 YYZZ=            -16.6615
 XXYZ=              1.9620 YYXZ=              1.0128 ZZXY=             -0.3996
 N-N= 1.247885346707D+02 E-N=-6.900502333558D+02  KE= 1.916107323464D+02
                          Isotropic Fermi Contact Couplings
        Atom                 a.u.       MegaHertz       Gauss      10(-4) cm-1
     1  C(13)              0.00013       0.14089       0.05027       0.04700
     2  C(13)              0.00002       0.02350       0.00838       0.00784
     3  C(13)              0.00698       7.84622       2.79973       2.61722
     4  O(17)              0.00003      -0.01647      -0.00588      -0.00550
     5  H(1)               0.00631      28.21821      10.06896       9.41258
     6  H(1)               0.00616      27.52914       9.82308       9.18273
     7  H(1)               0.00587      26.24402       9.36452       8.75406
     8  H(1)               0.00000       0.00018       0.00006       0.00006
     9  H(1)               0.00081       3.63930       1.29859       1.21394
    10  H(1)               0.00003       0.13952       0.04978       0.04654
 --------------------------------------------------------
       Center         ----  Spin Dipole Couplings  ----
                      3XX-RR        3YY-RR        3ZZ-RR
 --------------------------------------------------------
     1   Atom        0.011940     -0.020730      0.008790
     2   Atom       -0.034681      0.055607     -0.020926
     3   Atom        0.031190     -0.014368     -0.016822
     4   Atom       -0.443456     -1.718768      2.162224
     5   Atom       -0.004978     -0.011648      0.016625
     6   Atom       -0.001043      0.009608     -0.008566
     7   Atom       -0.014166      0.019836     -0.005670
     8   Atom        0.011331     -0.005079     -0.006253
     9   Atom        0.004347     -0.000893     -0.003454
    10   Atom        0.008431     -0.004933     -0.003498
 --------------------------------------------------------
                        XY            XZ            YZ
 --------------------------------------------------------
     1   Atom        0.043039      0.018857      0.020230
     2   Atom       -0.012521     -0.020991      0.006052
     3   Atom        0.014783     -0.005769     -0.000975
     4   Atom        0.566630     -2.471547     -0.938727
     5   Atom        0.004845      0.016247      0.005685
     6   Atom       -0.015490     -0.008902      0.010857
     7   Atom       -0.003947      0.001928     -0.013738
     8   Atom       -0.001717      0.001239     -0.000061
     9   Atom        0.005304      0.001832      0.001819
    10   Atom        0.007972     -0.006938     -0.003352
 --------------------------------------------------------


 ---------------------------------------------------------------------------------
              Anisotropic Spin Dipole Couplings in Principal Axis System
 ---------------------------------------------------------------------------------

       Atom             a.u.   MegaHertz   Gauss  10(-4) cm-1        Axes

              Baa    -0.0511    -6.858    -2.447    -2.288 -0.5368  0.8360 -0.1134
     1 C(13)  Bbb    -0.0058    -0.778    -0.278    -0.260 -0.4698 -0.1846  0.8633
              Bcc     0.0569     7.636     2.725     2.547  0.7008  0.5167  0.4919
 
              Baa    -0.0503    -6.752    -2.409    -2.252  0.8183  0.0641  0.5712
     2 C(13)  Bbb    -0.0080    -1.078    -0.385    -0.360 -0.5526 -0.1860  0.8124
              Bcc     0.0583     7.830     2.794     2.612 -0.1583  0.9805  0.1168
 
              Baa    -0.0191    -2.556    -0.912    -0.853 -0.3007  0.8661 -0.3994
     3 C(13)  Bbb    -0.0172    -2.302    -0.821    -0.768 -0.0179  0.4136  0.9103
              Bcc     0.0362     4.858     1.733     1.620  0.9536  0.2808 -0.1089
 
              Baa    -1.9346   139.988    49.951    46.695  0.8363 -0.3463  0.4252
     4 O(17)  Bbb    -1.9339   139.932    49.931    46.676  0.2091  0.9182  0.3366
              Bcc     3.8685  -279.920   -99.883   -93.371 -0.5069 -0.1926  0.8402
 
              Baa    -0.0150    -7.978    -2.847    -2.661  0.7372 -0.6204 -0.2676
     5 H(1)   Bbb    -0.0118    -6.281    -2.241    -2.095  0.4849  0.7616 -0.4299
              Bcc     0.0267    14.259     5.088     4.756  0.4705  0.1872  0.8623
 
              Baa    -0.0145    -7.742    -2.763    -2.583  0.4789 -0.0857  0.8737
     6 H(1)   Bbb    -0.0118    -6.288    -2.244    -2.098  0.6871  0.6560 -0.3122
              Bcc     0.0263    14.030     5.006     4.680 -0.5464  0.7499  0.3731
 
              Baa    -0.0147    -7.818    -2.790    -2.608  0.9922  0.0734 -0.1007
     7 H(1)   Bbb    -0.0117    -6.216    -2.218    -2.073  0.0625  0.4057  0.9119
              Bcc     0.0263    14.034     5.008     4.681 -0.1078  0.9111 -0.3979
 
              Baa    -0.0063    -3.384    -1.208    -1.129 -0.0750 -0.0536  0.9957
     8 H(1)   Bbb    -0.0053    -2.803    -1.000    -0.935  0.0983  0.9933  0.0609
              Bcc     0.0116     6.187     2.208     2.064  0.9923 -0.1024  0.0692
 
              Baa    -0.0047    -2.490    -0.889    -0.831 -0.2934  0.7171 -0.6322
     9 H(1)   Bbb    -0.0035    -1.878    -0.670    -0.627 -0.4832  0.4594  0.7453
              Bcc     0.0082     4.369     1.559     1.457  0.8249  0.5242  0.2117
 
              Baa    -0.0087    -4.619    -1.648    -1.541 -0.4074  0.9122  0.0448
    10 H(1)   Bbb    -0.0066    -3.548    -1.266    -1.184  0.3634  0.1169  0.9243
              Bcc     0.0153     8.167     2.914     2.724  0.8378  0.3928 -0.3791
 

 ---------------------------------------------------------------------------------

 No NMR shielding tensors so no spin-rotation constants.
 Leave Link  601 at Fri Oct  2 15:46:19 2015, MaxMem=    33554432 cpu:               0.3 elap:               0.3
 (Enter /home/gauss/gdvi03p/gdv/l9999.exe)
 Unable to Open any file for archive entry.
 1\1\GINC-MEDUSA\SP\ROHF\CC-pVDZ\C3H6O1(1+,2)\PLESTRAN\02-Oct-2015\0\\#
 p rohf/cc-pVDZ nosymm\\S-Propylene Oxide cc-pVDZ\\1,2\C,0,0.152133,-0.
 0358,0.485797\C,0,-1.039475,0.615938,-0.061249\C,0,1.507144,0.097806,-
 0.14846\O,0,-0.828215,-0.788248,-0.239431\H,0,0.153725,-0.249258,1.552
 136\H,0,-1.863178,0.881921,0.593333\H,0,-0.949807,1.21421,-0.962771\H,
 0,2.076806,-0.826189,-0.036671\H,0,2.074465,0.901788,0.325106\H,0,1.41
 4895,0.315852,-1.212218\\Version=ES64L-GDVRevI.03+\HF=-191.5917576\EFC
 =0.\RMSD=4.504e-09\Dipole=-0.3824647,0.5219326,0.3049818\Quadrupole=2.
 4937096,-1.7404918,-0.7532178,-1.4728112,-0.2423065,-0.7575736\PG=C01 
 [X(C3H6O1)]\\@
 The archive entry for this job was punched.


 There are more things in heaven and earth, Horatio,
 than are dreamt of in your philosophy.
                   -- Hamlet, Act I, Scene 5
 Job cpu time:       0 days  0 hours  0 minutes  3.2 seconds.
 Elapsed time:       0 days  0 hours  0 minutes  2.9 seconds.
 File lengths (MBytes):  RWF=      5 Int=      0 D2E=      0 Chk=      2 Scr=      1
 Normal termination of Gaussian DV at Fri Oct  2 15:46:19 2015.
