 Entering Gaussian System, Link 0=gdv
 Input=propylene-oxide_sto3g_field.com
 Output=propylene-oxide_sto3g_field.log
 Initial command:
 /home/gauss/gdvi03p/gdv/l1.exe "/home/GauScr/Gau-11517.inp" -scrdir="/home/GauScr/"
 Entering Link 1 = /home/gauss/gdvi03p/gdv/l1.exe PID=     11518.
  
 Copyright (c) 1988,1990,1992,1993,1995,1998,2003,2009,2015,
            Gaussian, Inc.  All Rights Reserved.
  
 This is the private, development version of
 the Gaussian(R) DV system of programs. It is based on
 the Gaussian(R) 09 system (copyright 2009, Gaussian, Inc.),
 the Gaussian(R) 03 system (copyright 2003, Gaussian, Inc.),
 the Gaussian(R) 98 system (copyright 1998, Gaussian, Inc.),
 the Gaussian(R) 94 system (copyright 1995, Gaussian, Inc.),
 the Gaussian 92(TM) system (copyright 1992, Gaussian, Inc.),
 the Gaussian 90(TM) system (copyright 1990, Gaussian, Inc.),
 the Gaussian 88(TM) system (copyright 1988, Gaussian, Inc.),
 the Gaussian 86(TM) system (copyright 1986, Carnegie Mellon
 University), and the Gaussian 82(TM) system (copyright 1983,
 Carnegie Mellon University). Gaussian is a federally registered
 trademark of Gaussian, Inc.
  
 This software contains proprietary and confidential information,
 including trade secrets, belonging to Gaussian, Inc.
  
 This software is provided under written license and may be
 used, copied, transmitted, or stored only in accord with that
 written license.
  
 The following legend is applicable only to US Government
 contracts under FAR:
  
                    RESTRICTED RIGHTS LEGEND
  
 Use, reproduction and disclosure by the US Government is
 subject to restrictions as set forth in subparagraphs (a)
 and (c) of the Commercial Computer Software - Restricted
 Rights clause in FAR 52.227-19.
  
 Gaussian, Inc.
 340 Quinnipiac St., Bldg. 40, Wallingford CT 06492
  
  
 ---------------------------------------------------------------
 Warning -- This program may not be used in any manner that
 competes with the business of Gaussian, Inc. or will provide
 assistance to any competitor of Gaussian, Inc.  The licensee
 of this program is prohibited from giving any competitor of
 Gaussian, Inc. access to this program.  By using this program,
 the user acknowledges that Gaussian, Inc. is engaged in the
 business of creating and licensing software in the field of
 computational chemistry and represents and warrants to the
 licensee that it is not a competitor of Gaussian, Inc. and that
 it will not use this program in any manner prohibited above.
 ---------------------------------------------------------------
  

 Cite this work as:
 Gaussian Development Version, Revision I.03+,
 M. J. Frisch, G. W. Trucks, H. B. Schlegel, G. E. Scuseria, 
 M. A. Robb, J. R. Cheeseman, G. Scalmani, V. Barone, B. Mennucci, 
 G. A. Petersson, H. Nakatsuji, M. Caricato, X. Li, H. P. Hratchian, 
 J. Bloino, B. G. Janesko, A. F. Izmaylov, A. Marenich, F. Lipparini, 
 G. Zheng, J. L. Sonnenberg, W. Liang, M. Hada, M. Ehara, K. Toyota, 
 R. Fukuda, J. Hasegawa, M. Ishida, T. Nakajima, Y. Honda, O. Kitao, 
 H. Nakai, T. Vreven, K. Throssell, J. A. Montgomery, Jr., 
 J. E. Peralta, F. Ogliaro, M. Bearpark, J. J. Heyd, E. Brothers, 
 K. N. Kudin, V. N. Staroverov, T. Keith, R. Kobayashi, J. Normand, 
 K. Raghavachari, A. Rendell, J. C. Burant, S. S. Iyengar, J. Tomasi, 
 M. Cossi, N. Rega, J. M. Millam, M. Klene, J. E. Knox, J. B. Cross, 
 V. Bakken, C. Adamo, J. Jaramillo, R. Gomperts, R. E. Stratmann, 
 O. Yazyev, A. J. Austin, R. Cammi, C. Pomelli, J. W. Ochterski, 
 R. L. Martin, K. Morokuma, V. G. Zakrzewski, G. A. Voth, 
 P. Salvador, J. J. Dannenberg, S. Dapprich, P. V. Parandekar, 
 N. J. Mayhall, A. D. Daniels, O. Farkas, J. B. Foresman, 
 J. V. Ortiz, J. Cioslowski, and D. J. Fox, 
 Gaussian, Inc., Wallingford CT, 2014.
 
 *******************************************
 Gaussian DV:  ES64L-GDVRevI.03+  2-May-2015
                  1-Oct-2015 
 *******************************************
 ------------------------------------------------
 # uhf/sto-3g gfinput pop=full nosymm Field=X-100
 ------------------------------------------------
 1/38=1,172=1/1;
 2/12=2,15=1,17=6,18=5,40=1/2;
 3/6=3,11=2,14=1,15=-100,24=10,25=1,30=1,116=2/1,2,3;
 4//1;
 5/5=2,38=5/2;
 6/7=3,28=1/1;
 99/5=1,9=1/99;
 ------------------------
 S-Propylene Oxide STO-3G
 ------------------------
 Symbolic Z-matrix:
 Charge =  1 Multiplicity = 2
 C                     0.15213  -0.0358    0.4858 
 C                    -1.03947   0.61594  -0.06125 
 C                     1.50714   0.09781  -0.14846 
 O                    -0.82822  -0.78825  -0.23943 
 H                     0.15373  -0.24926   1.55214 
 H                    -1.86318   0.88192   0.59333 
 H                    -0.94981   1.21421  -0.96277 
 H                     2.07681  -0.82619  -0.03667 
 H                     2.07447   0.90179   0.32511 
 H                     1.4149    0.31585  -1.21222 
 
                          Input orientation:                          
 ---------------------------------------------------------------------
 Center     Atomic      Atomic             Coordinates (Angstroms)
 Number     Number       Type             X           Y           Z
 ---------------------------------------------------------------------
      1          6           0        0.152133   -0.035800    0.485797
      2          6           0       -1.039475    0.615938   -0.061249
      3          6           0        1.507144    0.097806   -0.148460
      4          8           0       -0.828215   -0.788248   -0.239431
      5          1           0        0.153725   -0.249258    1.552136
      6          1           0       -1.863178    0.881921    0.593333
      7          1           0       -0.949807    1.214210   -0.962771
      8          1           0        2.076806   -0.826189   -0.036671
      9          1           0        2.074465    0.901788    0.325106
     10          1           0        1.414895    0.315852   -1.212218
 ---------------------------------------------------------------------
                    Distance matrix (angstroms):
                    1          2          3          4          5
     1  C    0.000000
     2  C    1.464224   0.000000
     3  C    1.502061   2.600257   0.000000
     4  O    1.432905   1.431125   2.499454   0.000000
     5  H    1.087495   2.185246   2.200960   2.112919   0.000000
     6  H    2.217037   1.085224   3.538950   2.134036   2.503351
     7  H    2.207973   1.085685   2.818877   2.132567   3.111957
     8  H    2.145240   3.433881   1.091228   2.912336   2.560351
     9  H    2.144820   3.150810   1.092019   3.405947   2.553380
    10  H    2.145107   2.727400   1.089787   2.682703   3.090559
                    6          7          8          9         10
     6  H    0.000000
     7  H    1.834699   0.000000
     8  H    4.340279   3.765803   0.000000
     9  H    3.946818   3.301887   1.765444   0.000000
    10  H    3.784998   2.541867   1.767567   1.772489   0.000000
 Symmetry turned off by external request.
 Stoichiometry    C3H6O(1+,2)
 Framework group  C1[X(C3H6O)]
 Deg. of freedom    24
 Full point group                 C1      NOp   1
 Rotational constants (GHZ):     18.2269979      6.6669563      5.9403328
 Standard basis: STO-3G (5D, 7F)
 The following finite field(s) will be applied:
 An electric field of             -0.0100  0.0000  0.0000
 AO basis set in the form of general basis input (Overlap normalization):
      1 0
 S   3 1.00       0.000000000000
      0.7161683735D+02  0.1543289673D+00
      0.1304509632D+02  0.5353281423D+00
      0.3530512160D+01  0.4446345422D+00
 SP   3 1.00       0.000000000000
      0.2941249355D+01 -0.9996722919D-01  0.1559162750D+00
      0.6834830964D+00  0.3995128261D+00  0.6076837186D+00
      0.2222899159D+00  0.7001154689D+00  0.3919573931D+00
 ****
      2 0
 S   3 1.00       0.000000000000
      0.7161683735D+02  0.1543289673D+00
      0.1304509632D+02  0.5353281423D+00
      0.3530512160D+01  0.4446345422D+00
 SP   3 1.00       0.000000000000
      0.2941249355D+01 -0.9996722919D-01  0.1559162750D+00
      0.6834830964D+00  0.3995128261D+00  0.6076837186D+00
      0.2222899159D+00  0.7001154689D+00  0.3919573931D+00
 ****
      3 0
 S   3 1.00       0.000000000000
      0.7161683735D+02  0.1543289673D+00
      0.1304509632D+02  0.5353281423D+00
      0.3530512160D+01  0.4446345422D+00
 SP   3 1.00       0.000000000000
      0.2941249355D+01 -0.9996722919D-01  0.1559162750D+00
      0.6834830964D+00  0.3995128261D+00  0.6076837186D+00
      0.2222899159D+00  0.7001154689D+00  0.3919573931D+00
 ****
      4 0
 S   3 1.00       0.000000000000
      0.1307093214D+03  0.1543289673D+00
      0.2380886605D+02  0.5353281423D+00
      0.6443608313D+01  0.4446345422D+00
 SP   3 1.00       0.000000000000
      0.5033151319D+01 -0.9996722919D-01  0.1559162750D+00
      0.1169596125D+01  0.3995128261D+00  0.6076837186D+00
      0.3803889600D+00  0.7001154689D+00  0.3919573931D+00
 ****
      5 0
 S   3 1.00       0.000000000000
      0.3425250914D+01  0.1543289673D+00
      0.6239137298D+00  0.5353281423D+00
      0.1688554040D+00  0.4446345422D+00
 ****
      6 0
 S   3 1.00       0.000000000000
      0.3425250914D+01  0.1543289673D+00
      0.6239137298D+00  0.5353281423D+00
      0.1688554040D+00  0.4446345422D+00
 ****
      7 0
 S   3 1.00       0.000000000000
      0.3425250914D+01  0.1543289673D+00
      0.6239137298D+00  0.5353281423D+00
      0.1688554040D+00  0.4446345422D+00
 ****
      8 0
 S   3 1.00       0.000000000000
      0.3425250914D+01  0.1543289673D+00
      0.6239137298D+00  0.5353281423D+00
      0.1688554040D+00  0.4446345422D+00
 ****
      9 0
 S   3 1.00       0.000000000000
      0.3425250914D+01  0.1543289673D+00
      0.6239137298D+00  0.5353281423D+00
      0.1688554040D+00  0.4446345422D+00
 ****
     10 0
 S   3 1.00       0.000000000000
      0.3425250914D+01  0.1543289673D+00
      0.6239137298D+00  0.5353281423D+00
      0.1688554040D+00  0.4446345422D+00
 ****

    26 basis functions,    78 primitive gaussians,    26 cartesian basis functions
    16 alpha electrons       15 beta electrons
       nuclear repulsion energy       124.7885346707 Hartrees.
 NAtoms=   10 NActive=   10 NUniq=   10 SFac= 1.00D+00 NAtFMM=   60 NAOKFM=F Big=F
 Integral buffers will be    131072 words long.
 Raffenetti 2 integral format.
 Two-electron integral symmetry is turned off.
 One-electron integrals computed using PRISM.
 NBasis=    26 RedAO= T EigKep=  2.09D-01  NBF=    26
 NBsUse=    26 1.00D-06 EigRej= -1.00D+00 NBFU=    26
 The nuclear repulsion energy is now       124.7885347085 hartrees.
 ExpMin= 1.69D-01 ExpMax= 1.31D+02 ExpMxC= 1.31D+02 IAcc=1 IRadAn=         1 AccDes= 0.00D+00
 Harris functional with IExCor=  205 and IRadAn=       1 diagonalized for initial guess.
 HarFok:  IExCor=  205 AccDes= 0.00D+00 IRadAn=         1 IDoV= 1 UseB2=F ITyADJ=14
 ICtDFT=  3500011 ScaDFX=  1.000000  1.000000  1.000000  1.000000
 FoFCou: FMM=F IPFlag=           0 FMFlag=      100000 FMFlg1=           0
         NFxFlg=           0 DoJE=T BraDBF=F KetDBF=T FulRan=T
         wScrn=  0.000000 ICntrl=       500 IOpCl=  0 I1Cent=   200000004 NGrid=           0
         NMat0=    1 NMatS0=      1 NMatT0=    0 NMatD0=    1 NMtDS0=    0 NMtDT0=    0
 Symmetry not used in FoFCou.
 Initial guess <Sx>= 0.0000 <Sy>= 0.0000 <Sz>= 0.5000 <S**2>= 0.7500 S= 0.5000
 Keep R1 and R2 ints in memory in canonical form, NReq=938551.
 Requested convergence on RMS density matrix=1.00D-08 within 128 cycles.
 Requested convergence on MAX density matrix=1.00D-06.
 Requested convergence on             energy=1.00D-06.
 No special actions if energy rises.
 SCF Done:  E(UHF) =  -189.265853382     A.U. after   19 cycles
            NFock= 19  Conv=0.96D-08     -V/T= 2.0143
 <Sx>= 0.0000 <Sy>= 0.0000 <Sz>= 0.5000 <S**2>= 0.7613 S= 0.5056
 <L.S>= 0.000000000000E+00
 Annihilation of the first spin contaminant:
 S**2 before annihilation     0.7613,   after     0.7501

 **********************************************************************

            Population analysis using the SCF density.

 **********************************************************************

 Alpha  occ. eigenvalues --  -20.88825 -11.44267 -11.43876 -11.26818  -1.85528
 Alpha  occ. eigenvalues --   -1.27057  -1.19137  -1.10279  -1.04662  -0.94633
 Alpha  occ. eigenvalues --   -0.89178  -0.84114  -0.79263  -0.74968  -0.71669
 Alpha  occ. eigenvalues --   -0.68760
 Alpha virt. eigenvalues --    0.09933   0.14923   0.32074   0.36908   0.39211
 Alpha virt. eigenvalues --    0.42177   0.51957   0.52824   0.56057   0.57798
  Beta  occ. eigenvalues --  -20.85752 -11.44540 -11.44105 -11.26718  -1.72393
  Beta  occ. eigenvalues --   -1.23301  -1.17704  -1.06574  -0.95280  -0.89875
  Beta  occ. eigenvalues --   -0.85287  -0.78258  -0.74915  -0.71285  -0.68339
  Beta virt. eigenvalues --   -0.13321   0.10243   0.18579   0.34162   0.37491
  Beta virt. eigenvalues --    0.39473   0.42488   0.52004   0.52891   0.56127
  Beta virt. eigenvalues --    0.57811
     Alpha Molecular Orbital Coefficients:
                           1         2         3         4         5
                           O         O         O         O         O
     Eigenvalues --   -20.88825 -11.44267 -11.43876 -11.26818  -1.85528
   1 1   C  1S          0.00044   0.00069   0.99221   0.00120  -0.06851
   2        2S         -0.00343  -0.00607   0.03558  -0.00633   0.13342
   3        2PX         0.00211   0.00324  -0.00258  -0.00414  -0.06916
   4        2PY         0.00257  -0.00237  -0.00031  -0.00039  -0.02484
   5        2PZ         0.00179   0.00137  -0.00123   0.00203  -0.04365
   6 2   C  1S          0.00044   0.99222   0.00008   0.00012  -0.06948
   7        2S         -0.00343   0.03570  -0.00622   0.00013   0.13735
   8        2PX         0.00008   0.00128  -0.00367   0.00008   0.03076
   9        2PY         0.00367  -0.00226   0.00142   0.00007  -0.08164
  10        2PZ         0.00083   0.00029  -0.00181  -0.00008   0.00093
  11 3   C  1S         -0.00002  -0.00009  -0.00022   0.99190  -0.00683
  12        2S          0.00025   0.00016  -0.00540   0.03811   0.01581
  13        2PX        -0.00019   0.00000   0.00373  -0.00071  -0.00929
  14        2PY        -0.00019   0.00005   0.00040  -0.00008  -0.00210
  15        2PZ        -0.00014   0.00000  -0.00136   0.00022   0.00467
  16 4   O  1S          0.99421   0.00040   0.00040  -0.00001  -0.22560
  17        2S          0.02525  -0.00420  -0.00424   0.00021   0.82577
  18        2PX         0.00135   0.00135  -0.00246   0.00012   0.05319
  19        2PY         0.00390  -0.00254  -0.00049   0.00005   0.15727
  20        2PZ         0.00161   0.00023  -0.00152   0.00001   0.06576
  21 5   H  1S          0.00020   0.00003  -0.00664   0.00007   0.01223
  22 6   H  1S          0.00018  -0.00656   0.00006  -0.00002   0.01306
  23 7   H  1S          0.00019  -0.00653   0.00002  -0.00008   0.01271
  24 8   H  1S         -0.00003  -0.00005  -0.00009  -0.00685   0.00052
  25 9   H  1S         -0.00004  -0.00001  -0.00010  -0.00684   0.00051
  26 10  H  1S         -0.00009  -0.00013   0.00002  -0.00692   0.00101
                           6         7         8         9        10
                           O         O         O         O         O
     Eigenvalues --    -1.27057  -1.19137  -1.10279  -1.04662  -0.94633
   1 1   C  1S          0.15829   0.06837  -0.07473  -0.03553   0.04777
   2        2S         -0.45215  -0.22738   0.24947   0.12506  -0.19094
   3        2PX         0.01706  -0.15873  -0.18151  -0.12904  -0.10208
   4        2PY        -0.07576   0.10870  -0.09257  -0.02246   0.05700
   5        2PZ         0.03584   0.03355   0.17742  -0.14641  -0.16401
   6 2   C  1S          0.11318  -0.15885   0.04843   0.03043   0.04489
   7        2S         -0.31914   0.49266  -0.17386  -0.12010  -0.13987
   8        2PX        -0.10727  -0.05415   0.01837   0.23069   0.12205
   9        2PY        -0.00999  -0.03045  -0.04337  -0.02237  -0.33969
  10        2PZ        -0.05466   0.00264   0.21944  -0.09050   0.03976
  11 3   C  1S          0.09732   0.12220   0.09289   0.11024  -0.05411
  12        2S         -0.26125  -0.33682  -0.26736  -0.33526   0.17614
  13        2PX         0.06766   0.04985   0.00290  -0.05755   0.06521
  14        2PY        -0.00008   0.01949  -0.00736  -0.01303   0.02535
  15        2PZ        -0.02501  -0.01752   0.03069  -0.00941  -0.06593
  16 4   O  1S         -0.11610   0.04329   0.02199   0.03246   0.03203
  17        2S          0.53112  -0.20515  -0.10816  -0.16222  -0.16172
  18        2PX        -0.12098  -0.23315  -0.00101   0.56294  -0.21854
  19        2PY        -0.18088   0.22990  -0.09901   0.22618   0.49813
  20        2PZ        -0.07977   0.00869   0.57691  -0.29428   0.25000
  21 5   H  1S         -0.09728  -0.05535   0.15151  -0.02986  -0.17890
  22 6   H  1S         -0.07068   0.15335  -0.00709  -0.15480  -0.17598
  23 7   H  1S         -0.07367   0.12595  -0.13876  -0.00614  -0.19423
  24 8   H  1S         -0.04324  -0.07707  -0.06403  -0.10228   0.05415
  25 9   H  1S         -0.04742  -0.06873  -0.06753  -0.11265   0.06302
  26 10  H  1S         -0.05145  -0.07521  -0.09343  -0.08590   0.09222
                          11        12        13        14        15
                           O         O         O         O         O
     Eigenvalues --    -0.89178  -0.84114  -0.79263  -0.74968  -0.71669
   1 1   C  1S          0.06411   0.02280  -0.02307   0.04521   0.00709
   2        2S         -0.19378  -0.08096   0.08529  -0.17359  -0.01727
   3        2PX        -0.12902  -0.04722  -0.07617  -0.40686   0.11128
   4        2PY        -0.11671  -0.08904   0.38345   0.03074   0.01572
   5        2PZ        -0.30616   0.01994  -0.17038   0.30674  -0.16382
   6 2   C  1S         -0.03283   0.00015  -0.00561  -0.00897  -0.00411
   7        2S          0.07982  -0.00502   0.01866   0.02166   0.01287
   8        2PX        -0.06321  -0.30389   0.23299   0.18105  -0.04274
   9        2PY         0.20099  -0.10301   0.03587   0.06916   0.00937
  10        2PZ         0.01703   0.39853   0.34660  -0.03660   0.00460
  11 3   C  1S         -0.02761  -0.01840   0.00636  -0.01674  -0.00458
  12        2S          0.09141   0.06256  -0.02153   0.06339   0.01500
  13        2PX         0.03725   0.09114  -0.14116   0.43527   0.10923
  14        2PY        -0.02760  -0.07367   0.27872   0.19989   0.20317
  15        2PZ        -0.14330  -0.02021  -0.08456  -0.07512   0.52924
  16 4   O  1S          0.00461   0.00535  -0.01942  -0.00766  -0.00454
  17        2S         -0.02237  -0.02572   0.08940   0.03442   0.02576
  18        2PX         0.37399   0.32929  -0.11780   0.19834   0.12459
  19        2PY        -0.21079   0.16925  -0.34302  -0.06821   0.04138
  20        2PZ         0.48266  -0.36208  -0.14377  -0.12045   0.12663
  21 5   H  1S         -0.29164  -0.00157  -0.15281   0.16826  -0.18471
  22 6   H  1S          0.12669   0.36572   0.05107  -0.11761   0.04486
  23 7   H  1S          0.12375  -0.32622  -0.19287   0.09872  -0.01113
  24 8   H  1S          0.04740   0.08992  -0.22948   0.06643  -0.04111
  25 9   H  1S         -0.00965   0.01423   0.05879   0.28075   0.34819
  26 10  H  1S          0.11582   0.01590   0.09964   0.09976  -0.40879
                          16        17        18        19        20
                           O         V         V         V         V
     Eigenvalues --    -0.68760   0.09933   0.14923   0.32074   0.36908
   1 1   C  1S          0.00452   0.00184   0.07492  -0.00753   0.11317
   2        2S         -0.01059  -0.00080  -0.35445   0.02559  -0.68956
   3        2PX         0.14020  -0.00269   0.32861   0.08630   0.52086
   4        2PY        -0.23719   0.70340   0.55607   0.18687  -0.17333
   5        2PZ         0.08174   0.13886   0.32236  -0.64376   0.05931
   6 2   C  1S          0.02736  -0.02424   0.07522   0.06194  -0.21625
   7        2S         -0.10841   0.11067  -0.36026  -0.38802   1.36747
   8        2PX        -0.31776  -0.42668   0.03503   0.26310   0.25855
   9        2PY        -0.04627  -0.60168   0.55967   0.16709   0.11110
  10        2PZ        -0.17062  -0.38066   0.14214  -0.61327  -0.11738
  11 3   C  1S          0.00162  -0.00233  -0.00874   0.04769  -0.00294
  12        2S         -0.00820   0.01145   0.03823  -0.28013   0.00950
  13        2PX        -0.16817  -0.01357  -0.03729   0.23536   0.07979
  14        2PY         0.45535   0.02981   0.03687   0.10270  -0.08845
  15        2PZ        -0.14126   0.00958   0.06041  -0.31458   0.07129
  16 4   O  1S          0.00436   0.01229  -0.10095  -0.00257  -0.00046
  17        2S         -0.01232  -0.07890   0.65060   0.01332   0.00849
  18        2PX         0.12992   0.43203   0.27238  -0.14825   0.20221
  19        2PY         0.22877  -0.34446   0.63246   0.02626  -0.11974
  20        2PZ         0.08698   0.17941   0.29146   0.11112   0.15166
  21 5   H  1S          0.12782   0.02670   0.05415   0.67660   0.29396
  22 6   H  1S          0.07580  -0.04916   0.06241   0.74629  -0.45733
  23 7   H  1S          0.04305  -0.05475   0.06478  -0.43812  -0.88141
  24 8   H  1S         -0.40968   0.15037   0.10072   0.18647  -0.18068
  25 9   H  1S          0.15186  -0.15547  -0.21343   0.10554  -0.01638
  26 10  H  1S          0.21593  -0.00057   0.09194  -0.23709   0.14909
                          21        22        23        24        25
                           V         V         V         V         V
     Eigenvalues --     0.39211   0.42177   0.51957   0.52824   0.56057
   1 1   C  1S         -0.19086  -0.06547   0.01375   0.00022   0.01828
   2        2S          1.20818   0.39446  -0.08189  -0.02444  -0.10607
   3        2PX         0.01460   0.55780  -0.57161   0.52535  -0.02445
   4        2PY         0.08852  -0.12829  -0.24526  -0.16540  -0.05777
   5        2PZ         0.03979   0.31387   0.31791  -0.37278   0.25232
   6 2   C  1S         -0.01783   0.02518  -0.00764  -0.02759   0.00006
   7        2S          0.14307  -0.16689   0.04401   0.17662  -0.00449
   8        2PX        -0.57651   0.55873   0.17294  -0.05958   0.19720
   9        2PY         0.55280  -0.36639   0.21842  -0.23846  -0.07672
  10        2PZ        -0.27568  -0.15587  -0.49487   0.54260  -0.08214
  11 3   C  1S          0.05236   0.06342  -0.05352   0.03273  -0.21748
  12        2S         -0.30051  -0.37975   0.33250  -0.20285   1.40589
  13        2PX         0.47515   0.60165  -0.39318   0.37486   0.31908
  14        2PY         0.10682  -0.06316   0.64798   0.83791   0.03962
  15        2PZ        -0.29754   0.29344   0.50489  -0.11689  -0.38143
  16 4   O  1S          0.00067   0.00595   0.00986   0.00837  -0.00266
  17        2S          0.00438  -0.04095  -0.06699  -0.05833   0.01649
  18        2PX        -0.16250   0.02839  -0.07896   0.00679   0.04616
  19        2PY         0.10949  -0.07449  -0.02346  -0.04998  -0.01030
  20        2PZ        -0.06225   0.04851  -0.06771  -0.01807   0.00407
  21 5   H  1S         -0.60941  -0.52299  -0.26532   0.27978  -0.13205
  22 6   H  1S         -0.41009   0.63546   0.29261  -0.33850   0.17349
  23 7   H  1S         -0.49908   0.08035  -0.48685   0.40540   0.00452
  24 8   H  1S          0.04749  -0.24364   0.52237   0.60120  -0.67301
  25 9   H  1S         -0.04297  -0.22855  -0.63176  -0.62989  -0.61130
  26 10  H  1S         -0.08316   0.58600   0.17087  -0.15368  -0.89299
                          26
                           V
     Eigenvalues --     0.57798
   1 1   C  1S         -0.00201
   2        2S          0.00218
   3        2PX        -0.38818
   4        2PY         0.18266
   5        2PZ        -0.63735
   6 2   C  1S          0.03064
   7        2S         -0.21469
   8        2PX        -0.41251
   9        2PY         0.20901
  10        2PZ         0.04931
  11 3   C  1S         -0.05861
  12        2S          0.37552
  13        2PX         0.49007
  14        2PY        -0.18447
  15        2PZ         0.73388
  16 4   O  1S          0.00500
  17        2S         -0.03761
  18        2PX        -0.11706
  19        2PY         0.01130
  20        2PZ        -0.04846
  21 5   H  1S          0.51427
  22 6   H  1S         -0.22761
  23 7   H  1S          0.04336
  24 8   H  1S         -0.59083
  25 9   H  1S         -0.54595
  26 10  H  1S          0.54800
     Beta Molecular Orbital Coefficients:
                           1         2         3         4         5
                           O         O         O         O         O
     Eigenvalues --   -20.85752 -11.44540 -11.44105 -11.26718  -1.72393
   1 1   C  1S          0.00040  -0.00017   0.99214   0.00125  -0.09087
   2        2S         -0.00310  -0.00618   0.03587  -0.00633   0.20422
   3        2PX         0.00191   0.00329  -0.00259  -0.00415  -0.09463
   4        2PY         0.00232  -0.00239  -0.00033  -0.00039  -0.03440
   5        2PZ         0.00162   0.00139  -0.00124   0.00204  -0.05997
   6 2   C  1S          0.00040   0.99214   0.00096   0.00012  -0.09195
   7        2S         -0.00311   0.03606  -0.00625   0.00013   0.20938
   8        2PX         0.00007   0.00128  -0.00371   0.00008   0.04199
   9        2PY         0.00332  -0.00228   0.00144   0.00007  -0.11181
  10        2PZ         0.00075   0.00029  -0.00183  -0.00008   0.00128
  11 3   C  1S         -0.00002  -0.00009  -0.00027   0.99193  -0.01131
  12        2S          0.00024   0.00017  -0.00546   0.03800   0.02576
  13        2PX        -0.00017   0.00000   0.00377  -0.00070  -0.01459
  14        2PY        -0.00017   0.00005   0.00041  -0.00008  -0.00270
  15        2PZ        -0.00012   0.00000  -0.00137   0.00022   0.00637
  16 4   O  1S          0.99480   0.00037   0.00038  -0.00001  -0.19938
  17        2S          0.02277  -0.00416  -0.00420   0.00021   0.70585
  18        2PX         0.00124   0.00134  -0.00243   0.00014   0.05530
  19        2PY         0.00360  -0.00251  -0.00048   0.00006   0.16212
  20        2PZ         0.00149   0.00023  -0.00150  -0.00002   0.06960
  21 5   H  1S          0.00019   0.00003  -0.00671   0.00008   0.01924
  22 6   H  1S          0.00017  -0.00664   0.00006  -0.00002   0.02044
  23 7   H  1S          0.00017  -0.00661   0.00002  -0.00008   0.01978
  24 8   H  1S         -0.00002  -0.00005  -0.00009  -0.00683   0.00152
  25 9   H  1S         -0.00003  -0.00001  -0.00010  -0.00682   0.00136
  26 10  H  1S         -0.00009  -0.00013   0.00003  -0.00690   0.00216
                           6         7         8         9        10
                           O         O         O         O         O
     Eigenvalues --    -1.23301  -1.17704  -1.06574  -0.95280  -0.89875
   1 1   C  1S          0.15812   0.04311   0.10064  -0.01914   0.03652
   2        2S         -0.46732  -0.15769  -0.34234   0.07286  -0.16370
   3        2PX        -0.05379  -0.13379   0.21845   0.09293  -0.13258
   4        2PY        -0.07178   0.14513   0.07328  -0.07282   0.07161
   5        2PZ         0.01996   0.02408  -0.13119   0.36795   0.05677
   6 2   C  1S          0.06744  -0.18496  -0.04487  -0.01815   0.02537
   7        2S         -0.18802   0.58072   0.17608   0.07151  -0.06787
   8        2PX        -0.10333  -0.03960  -0.12791  -0.33131  -0.06420
   9        2PY        -0.05702   0.00874   0.03404   0.11428  -0.38987
  10        2PZ        -0.05778   0.00206  -0.18131   0.21360   0.29997
  11 3   C  1S          0.12986   0.09167  -0.13996  -0.01071  -0.05463
  12        2S         -0.35083  -0.25219   0.41373   0.03568   0.18505
  13        2PX         0.07117   0.03074   0.03463   0.05401   0.13596
  14        2PY         0.00009   0.02087   0.01210  -0.01723   0.03110
  15        2PZ        -0.02849  -0.01196  -0.03758   0.07884  -0.03311
  16 4   O  1S         -0.11942   0.07633  -0.04806  -0.04296   0.02807
  17        2S          0.51966  -0.34196   0.22727   0.21271  -0.14137
  18        2PX        -0.11201  -0.15513  -0.25643  -0.18403  -0.22909
  19        2PY        -0.07880   0.21405  -0.03923  -0.31024   0.40534
  20        2PZ        -0.06947  -0.03452  -0.21445  -0.05596   0.04643
  21 5   H  1S         -0.10507  -0.03940  -0.15758   0.23684  -0.03270
  22 6   H  1S         -0.04237   0.17197   0.05037   0.26883   0.03765
  23 7   H  1S         -0.04852   0.15367   0.12259  -0.04695  -0.33617
  24 8   H  1S         -0.06608  -0.06330   0.11442   0.04122   0.08206
  25 9   H  1S         -0.07112  -0.05240   0.11929   0.03983   0.10393
  26 10  H  1S         -0.07460  -0.05693   0.13912  -0.04366   0.07426
                          11        12        13        14        15
                           O         O         O         O         O
     Eigenvalues --    -0.85287  -0.78258  -0.74915  -0.71285  -0.68339
   1 1   C  1S          0.05006  -0.01817  -0.04439   0.01053   0.00243
   2        2S         -0.14524   0.06881   0.16688  -0.02834   0.00136
   3        2PX        -0.17039  -0.04624   0.41182   0.05479   0.13615
   4        2PY        -0.18099   0.37669  -0.00250   0.00554  -0.27164
   5        2PZ        -0.24609  -0.13920  -0.29375  -0.17335   0.04777
   6 2   C  1S         -0.02079  -0.00125   0.00735  -0.00685   0.02397
   7        2S          0.03439  -0.00026  -0.01110   0.01911  -0.09557
   8        2PX        -0.18770   0.20861  -0.22183  -0.01658  -0.32981
   9        2PY         0.16738   0.08908  -0.12282   0.02728  -0.07068
  10        2PZ         0.24863   0.32873   0.11902   0.03000  -0.19169
  11 3   C  1S         -0.02581   0.00619   0.01736  -0.00520   0.00075
  12        2S          0.08803  -0.02203  -0.06951   0.01711  -0.00506
  13        2PX         0.06224  -0.13768  -0.38903   0.16343  -0.15367
  14        2PY        -0.07572   0.31218  -0.18854   0.15944   0.45272
  15        2PZ        -0.15965  -0.07307   0.10571   0.52423  -0.09017
  16 4   O  1S          0.00845  -0.03336   0.01006  -0.00388   0.01217
  17        2S         -0.04145   0.16078  -0.04582   0.01902  -0.05477
  18        2PX         0.45393  -0.10511  -0.10092   0.17679   0.13394
  19        2PY        -0.14000  -0.36452   0.13078   0.02474   0.23808
  20        2PZ         0.27352  -0.14010  -0.10035   0.09035   0.14960
  21 5   H  1S         -0.22223  -0.12746  -0.14183  -0.18562   0.09497
  22 6   H  1S          0.27799   0.05816   0.18065   0.05076   0.06659
  23 7   H  1S         -0.04887  -0.15734  -0.18665  -0.01582   0.05163
  24 8   H  1S          0.08167  -0.25247  -0.05538   0.01128  -0.40190
  25 9   H  1S         -0.02903   0.08329  -0.24764   0.35018   0.17831
  26 10  H  1S          0.12102   0.09891  -0.12688  -0.42004   0.17296
                          16        17        18        19        20
                           V         V         V         V         V
     Eigenvalues --    -0.13321   0.10243   0.18579   0.34162   0.37491
   1 1   C  1S         -0.00144  -0.00141   0.07436  -0.02191   0.11129
   2        2S          0.01132   0.02321  -0.35352   0.11353  -0.68311
   3        2PX         0.00717  -0.00936   0.33053  -0.03565   0.51654
   4        2PY         0.00298   0.73071   0.49317   0.20670  -0.12793
   5        2PZ         0.01768   0.13967   0.31139  -0.64725  -0.04779
   6 2   C  1S         -0.00207  -0.01277   0.07662   0.09594  -0.20159
   7        2S          0.01276   0.04696  -0.36949  -0.60466   1.28017
   8        2PX        -0.01539  -0.43308   0.04349   0.19566   0.28746
   9        2PY        -0.00608  -0.54473   0.57324   0.16646   0.12840
  10        2PZ         0.03664  -0.37431   0.14642  -0.56776  -0.22240
  11 3   C  1S         -0.02444  -0.00041  -0.00781   0.03984   0.00205
  12        2S          0.11558   0.00155   0.03399  -0.23452  -0.02026
  13        2PX        -0.15397  -0.00205  -0.02551   0.16666   0.09973
  14        2PY        -0.01375   0.03410   0.04750   0.12839  -0.05766
  15        2PZ         0.06589   0.00398   0.07096  -0.33121   0.01122
  16 4   O  1S          0.00013   0.00743  -0.11016  -0.00301  -0.00085
  17        2S          0.00169  -0.04609   0.68618   0.01528   0.01014
  18        2PX        -0.46896   0.47783   0.26873  -0.26225   0.16428
  19        2PY        -0.17113  -0.33273   0.68583   0.03407  -0.13842
  20        2PZ         0.80455   0.20441   0.28771   0.19276   0.23258
  21 5   H  1S         -0.20900   0.01439   0.04656   0.62447   0.40383
  22 6   H  1S         -0.20941  -0.02481   0.06763   0.77113  -0.33854
  23 7   H  1S          0.20256  -0.03523   0.06179  -0.26745  -0.93862
  24 8   H  1S         -0.00986   0.15897   0.09090   0.22997  -0.13257
  25 9   H  1S         -0.05966  -0.15827  -0.21084   0.10494  -0.00639
  26 10  H  1S         -0.01739  -0.00158   0.10169  -0.29410   0.08902
                          21        22        23        24        25
                           V         V         V         V         V
     Eigenvalues --     0.39473   0.42488   0.52004   0.52891   0.56127
   1 1   C  1S         -0.18455  -0.07652  -0.01324  -0.00034   0.01785
   2        2S          1.17350   0.46640   0.07813  -0.02032  -0.10351
   3        2PX        -0.02548   0.56207   0.61078   0.47767  -0.01059
   4        2PY         0.08977  -0.12252   0.23338  -0.18076  -0.05786
   5        2PZ         0.01501   0.28197  -0.34794  -0.34766   0.24826
   6 2   C  1S         -0.01922   0.02411   0.00594  -0.02786  -0.00007
   7        2S          0.15429  -0.16073  -0.03244   0.17775  -0.00368
   8        2PX        -0.60249   0.53909  -0.17268  -0.05364   0.19027
   9        2PY         0.57773  -0.32323  -0.22395  -0.22359  -0.08338
  10        2PZ        -0.26532  -0.20359   0.52246   0.50541  -0.06209
  11 3   C  1S          0.04811   0.06825   0.05958   0.03284  -0.21652
  12        2S         -0.27469  -0.40754  -0.36973  -0.20319   1.39902
  13        2PX         0.43650   0.63941   0.41933   0.34214   0.32461
  14        2PY         0.10766  -0.04845  -0.58568   0.88293   0.04706
  15        2PZ        -0.31362   0.25154  -0.51370  -0.07860  -0.39344
  16 4   O  1S          0.00040   0.00716  -0.01075   0.01028  -0.00294
  17        2S          0.00604  -0.04713   0.07048  -0.06910   0.01799
  18        2PX        -0.18350  -0.00675   0.07675   0.00390   0.05634
  19        2PY         0.12195  -0.08254   0.02305  -0.05534  -0.00831
  20        2PZ        -0.06701   0.08177   0.08394  -0.03275  -0.00504
  21 5   H  1S         -0.57446  -0.53490   0.29268   0.25821  -0.13109
  22 6   H  1S         -0.45104   0.64353  -0.31413  -0.32360   0.16244
  23 7   H  1S         -0.51136   0.02252   0.50917   0.37475   0.02148
  24 8   H  1S          0.05984  -0.22827  -0.46531   0.64936  -0.66477
  25 9   H  1S         -0.02489  -0.22247   0.59558  -0.66027  -0.61044
  26 10  H  1S         -0.11779   0.55798  -0.17193  -0.12884  -0.90112
                          26
                           V
     Eigenvalues --     0.57811
   1 1   C  1S         -0.00204
   2        2S          0.00067
   3        2PX        -0.37851
   4        2PY         0.18030
   5        2PZ        -0.63702
   6 2   C  1S          0.02953
   7        2S         -0.20807
   8        2PX        -0.40258
   9        2PY         0.20127
  10        2PZ         0.04564
  11 3   C  1S         -0.05917
  12        2S          0.37909
  13        2PX         0.49914
  14        2PY        -0.18483
  15        2PZ         0.73130
  16 4   O  1S          0.00589
  17        2S         -0.04234
  18        2PX        -0.12716
  19        2PY         0.00682
  20        2PZ        -0.04352
  21 5   H  1S          0.51972
  22 6   H  1S         -0.22404
  23 7   H  1S          0.04117
  24 8   H  1S         -0.59619
  25 9   H  1S         -0.54991
  26 10  H  1S          0.54500
     Alpha Density Matrix:
                           1         2         3         4         5
   1 1   C  1S          1.03530
   2        2S         -0.11743   0.47155
   3        2PX        -0.01727   0.06668   0.31258
   4        2PY        -0.01066   0.02887  -0.05690   0.25654
   5        2PZ        -0.00832   0.01944  -0.07829  -0.06438   0.33491
   6 2   C  1S          0.00774  -0.01583   0.02955  -0.03423   0.01106
   7        2S         -0.01666   0.00218  -0.06575   0.10991  -0.02322
   8        2PX        -0.04008   0.10430  -0.15912   0.20559  -0.04737
   9        2PY         0.00384   0.01262  -0.00164  -0.00264  -0.00032
  10        2PZ        -0.02183   0.06208  -0.08955   0.12324  -0.03849
  11 3   C  1S          0.00863  -0.02135  -0.03646  -0.00214   0.02187
  12        2S         -0.01975   0.01833   0.08320   0.00473  -0.05527
  13        2PX         0.05081  -0.16426  -0.19275  -0.00634   0.11908
  14        2PY         0.00674  -0.02091  -0.01159   0.02259   0.02193
  15        2PZ        -0.01991   0.06252   0.09994   0.01911  -0.04746
  16 4   O  1S          0.00012   0.01096   0.00126   0.01092   0.00357
  17        2S          0.01299  -0.09218   0.02607  -0.03497   0.00368
  18        2PX        -0.02689   0.07945  -0.12231  -0.18340  -0.09804
  19        2PY        -0.00451  -0.03446  -0.00276  -0.11043  -0.02066
  20        2PZ        -0.01691   0.04351  -0.05847  -0.12875  -0.08207
  21 5   H  1S         -0.05375   0.14243  -0.02084  -0.07497   0.26233
  22 6   H  1S          0.00671  -0.01962   0.03872  -0.03284  -0.02512
  23 7   H  1S          0.00693  -0.02331   0.00242  -0.04582   0.03325
  24 8   H  1S          0.01000  -0.04444  -0.05114   0.00323   0.01057
  25 9   H  1S          0.01391  -0.05642  -0.02764   0.00897   0.02485
  26 10  H  1S          0.00918  -0.03890  -0.04944  -0.01977   0.03955
                           6         7         8         9        10
   6 2   C  1S          1.03461
   7        2S         -0.11279   0.44811
   8        2PX        -0.00044   0.00253   0.37005
   9        2PY        -0.01963   0.05848   0.00656   0.18479
  10        2PZ        -0.00353   0.00964  -0.00028  -0.04040   0.37065
  11 3   C  1S         -0.00139   0.00392   0.00882   0.00312  -0.00211
  12        2S          0.00403  -0.00920  -0.03035  -0.01311   0.01027
  13        2PX        -0.00767   0.02790   0.04911   0.00952   0.00615
  14        2PY         0.00663  -0.03042  -0.02927  -0.00173  -0.01667
  15        2PZ        -0.00232   0.01260  -0.00171  -0.00178  -0.00422
  16 4   O  1S          0.00014   0.01107   0.00603   0.00826   0.00523
  17        2S          0.01322  -0.09404  -0.04050   0.00142  -0.02294
  18        2PX         0.01795  -0.08794  -0.03143   0.11155   0.01411
  19        2PY        -0.03042   0.06304  -0.08189  -0.27501  -0.10313
  20        2PZ         0.00330  -0.03389  -0.02549   0.00979  -0.02814
  21 5   H  1S          0.00853  -0.03094  -0.03106  -0.00342  -0.05335
  22 6   H  1S         -0.05418   0.14315  -0.21219   0.03694   0.16692
  23 7   H  1S         -0.05402   0.14434   0.02484   0.12430  -0.23901
  24 8   H  1S         -0.00841   0.03612   0.05084   0.00460   0.02391
  25 9   H  1S          0.00183  -0.00785  -0.01304   0.00092  -0.00841
  26 10  H  1S          0.00526  -0.02232  -0.02268  -0.00434  -0.00598
                          11        12        13        14        15
  11 3   C  1S          1.03348
  12        2S         -0.10517   0.41538
  13        2PX        -0.00923   0.03810   0.27403
  14        2PY        -0.00083   0.00307  -0.01110   0.37370
  15        2PZ         0.00339  -0.01235   0.04734   0.00794   0.34012
  16 4   O  1S         -0.00080   0.00190  -0.00466  -0.00504  -0.00236
  17        2S          0.00296  -0.00465   0.02056   0.02697   0.01199
  18        2PX         0.01247  -0.04527   0.07170   0.03919  -0.00116
  19        2PY         0.00009   0.00382   0.00929   0.01126   0.01372
  20        2PZ        -0.00552   0.02553  -0.01862   0.02050   0.02024
  21 5   H  1S          0.00957  -0.03434   0.02314   0.01352  -0.05351
  22 6   H  1S         -0.00447   0.01577  -0.02804   0.00449   0.00399
  23 7   H  1S          0.00483  -0.01724   0.02508   0.00254  -0.00592
  24 8   H  1S         -0.04659   0.11980   0.13814  -0.25184   0.03978
  25 9   H  1S         -0.04757   0.12272   0.13110   0.21384   0.13509
  26 10  H  1S         -0.04651   0.11640  -0.04239   0.06129  -0.28522
                          16        17        18        19        20
  16 4   O  1S          1.05779
  17        2S         -0.24697   1.08207
  18        2PX         0.00880  -0.04726   0.77042
  19        2PY         0.02840  -0.15420   0.03386   0.66886
  20        2PZ         0.01135  -0.06119  -0.12835  -0.05272   0.91554
  21 5   H  1S          0.00469  -0.02043  -0.01714   0.01967  -0.09119
  22 6   H  1S          0.00384  -0.01534   0.07870  -0.02697  -0.04688
  23 7   H  1S          0.00390  -0.01607   0.00471  -0.05259   0.07703
  24 8   H  1S          0.00160  -0.00959  -0.01692  -0.01564  -0.01602
  25 9   H  1S         -0.00492   0.02658   0.05761   0.01973   0.01838
  26 10  H  1S          0.00123  -0.00578  -0.01088  -0.00229  -0.01123
                          21        22        23        24        25
  21 5   H  1S          0.25574
  22 6   H  1S         -0.03013   0.25771
  23 7   H  1S          0.03233  -0.06148   0.24917
  24 8   H  1S         -0.02035  -0.01553   0.00265   0.26229
  25 9   H  1S         -0.01357   0.00074   0.00587  -0.04389   0.25511
  26 10  H  1S          0.05195   0.00172   0.00353  -0.05314  -0.04712
                          26
  26 10  H  1S          0.28024
     Beta Density Matrix:
                           1         2         3         4         5
   1 1   C  1S          1.03621
   2        2S         -0.12172   0.49012
   3        2PX        -0.01795   0.06943   0.32603
   4        2PY        -0.00731   0.01278  -0.03684   0.29169
   5        2PZ        -0.00822   0.01910  -0.07621  -0.04932   0.35896
   6 2   C  1S          0.00722  -0.01295   0.02775  -0.03431   0.00990
   7        2S         -0.01387  -0.01288  -0.05554   0.11309  -0.01596
   8        2PX        -0.03874   0.09775  -0.15815   0.21298  -0.04486
   9        2PY         0.00229   0.02343  -0.00913  -0.00161  -0.00439
  10        2PZ        -0.02131   0.06065  -0.08982   0.12781  -0.03803
  11 3   C  1S          0.00838  -0.02044  -0.03554  -0.00267   0.02015
  12        2S         -0.01828   0.01282   0.07684   0.00607  -0.04657
  13        2PX         0.04929  -0.15940  -0.18843  -0.01131   0.10853
  14        2PY         0.00593  -0.01725  -0.01443   0.01716   0.01905
  15        2PZ        -0.01951   0.06130   0.09660   0.01773  -0.04595
  16 4   O  1S          0.00088   0.00699   0.00446   0.01298   0.00597
  17        2S          0.00987  -0.07531   0.01354  -0.03694  -0.00436
  18        2PX        -0.03118   0.10505  -0.10731  -0.19507  -0.14804
  19        2PY        -0.00700  -0.02266  -0.00254  -0.09694  -0.03827
  20        2PZ        -0.01709   0.04533  -0.11256  -0.15290  -0.02305
  21 5   H  1S         -0.05254   0.14079  -0.01085  -0.06423   0.25258
  22 6   H  1S          0.00575  -0.01450   0.04450  -0.03254  -0.03869
  23 7   H  1S          0.00679  -0.02219  -0.00796  -0.05062   0.04306
  24 8   H  1S          0.01059  -0.04773  -0.04929   0.00626   0.01202
  25 9   H  1S          0.01345  -0.05419  -0.03071   0.00149   0.01824
  26 10  H  1S          0.00901  -0.03844  -0.04897  -0.01793   0.04169
                           6         7         8         9        10
   6 2   C  1S          1.03565
   7        2S         -0.11771   0.46931
   8        2PX         0.00210  -0.00941   0.38127
   9        2PY        -0.01731   0.04728   0.02093   0.23884
  10        2PZ        -0.00175   0.00137  -0.00265  -0.02490   0.39352
  11 3   C  1S         -0.00133   0.00362   0.00964   0.00394  -0.00332
  12        2S          0.00371  -0.00759  -0.03359  -0.01694   0.01576
  13        2PX        -0.00741   0.02643   0.05362   0.01344   0.00024
  14        2PY         0.00656  -0.03049  -0.02958  -0.00256  -0.01715
  15        2PZ        -0.00244   0.01302  -0.00318  -0.00409  -0.00277
  16 4   O  1S          0.00084   0.00746   0.00487   0.01183   0.00538
  17        2S          0.01051  -0.07924  -0.03174  -0.00690  -0.01982
  18        2PX         0.01836  -0.09282  -0.00332   0.13276  -0.00938
  19        2PY        -0.03476   0.08791  -0.06946  -0.29468  -0.11632
  20        2PZ         0.00406  -0.03933  -0.05468   0.00160   0.02893
  21 5   H  1S          0.00769  -0.02630  -0.02462  -0.00497  -0.06243
  22 6   H  1S         -0.05259   0.13955  -0.20243   0.04561   0.16090
  23 7   H  1S         -0.05206   0.13850   0.02220   0.12843  -0.22641
  24 8   H  1S         -0.00823   0.03562   0.05249   0.00635   0.02447
  25 9   H  1S          0.00188  -0.00859  -0.01250   0.00146  -0.01093
  26 10  H  1S          0.00506  -0.02127  -0.02206  -0.00472  -0.00633
                          11        12        13        14        15
  11 3   C  1S          1.03304
  12        2S         -0.10338   0.40889
  13        2PX        -0.01150   0.04740   0.25334
  14        2PY        -0.00121   0.00478  -0.01345   0.37096
  15        2PZ         0.00428  -0.01603   0.05449   0.00899   0.33466
  16 4   O  1S         -0.00085   0.00217  -0.00488  -0.00507  -0.00240
  17        2S          0.00313  -0.00580   0.02093   0.02589   0.01163
  18        2PX         0.00619  -0.02356   0.02677   0.03021   0.01326
  19        2PY        -0.00204   0.01139  -0.00634   0.00537   0.01862
  20        2PZ         0.00506  -0.01232   0.05597   0.03550  -0.00522
  21 5   H  1S          0.00744  -0.02602   0.00786   0.00928  -0.04679
  22 6   H  1S         -0.00587   0.02058  -0.03957   0.00197   0.00841
  23 7   H  1S          0.00636  -0.02279   0.03770   0.00561  -0.01089
  24 8   H  1S         -0.04711   0.12175   0.13567  -0.25281   0.04059
  25 9   H  1S         -0.04834   0.12586   0.12662   0.21433   0.13775
  26 10  H  1S         -0.04724   0.11930  -0.04648   0.06052  -0.28406
                          16        17        18        19        20
  16 4   O  1S          1.05586
  17        2S         -0.23718   1.03567
  18        2PX         0.01282  -0.06620   0.46827
  19        2PY         0.03869  -0.20320  -0.04328   0.56729
  20        2PZ         0.01473  -0.07807   0.25667   0.09147   0.19719
  21 5   H  1S          0.00519  -0.02184  -0.06999  -0.00054  -0.00223
  22 6   H  1S          0.00420  -0.01619   0.02792  -0.04602   0.03864
  23 7   H  1S          0.00409  -0.01623   0.05421  -0.03488  -0.00613
  24 8   H  1S          0.00139  -0.00766  -0.02106  -0.01416  -0.01199
  25 9   H  1S         -0.00504   0.02565   0.04329   0.01213   0.04741
  26 10  H  1S          0.00150  -0.00671  -0.02109  -0.00657   0.00326
                          21        22        23        24        25
  21 5   H  1S          0.22422
  22 6   H  1S         -0.04534   0.22836
  23 7   H  1S          0.04521  -0.04399   0.22154
  24 8   H  1S         -0.01986  -0.01630   0.00315   0.26508
  25 9   H  1S         -0.02031  -0.00365   0.01144  -0.04552   0.25800
  26 10  H  1S          0.04832  -0.00185   0.00684  -0.05352  -0.04919
                          26
  26 10  H  1S          0.28251
    Full Mulliken population analysis:
                           1         2         3         4         5
   1 1   C  1S          2.07152
   2        2S         -0.05939   0.96167
   3        2PX         0.00000   0.00000   0.63860
   4        2PY         0.00000   0.00000   0.00000   0.54823
   5        2PZ         0.00000   0.00000   0.00000   0.00000   0.69387
   6 2   C  1S          0.00000  -0.00092  -0.00249  -0.00163  -0.00042
   7        2S         -0.00098  -0.00357   0.03597   0.03617   0.00533
   8        2PX        -0.00342   0.05992   0.04770   0.07778   0.01439
   9        2PY        -0.00015  -0.00585  -0.00200  -0.00037  -0.00040
  10        2PZ        -0.00086   0.01671   0.02798   0.02142  -0.00901
  11 3   C  1S          0.00000  -0.00122  -0.00317  -0.00002  -0.00087
  12        2S         -0.00111   0.00983   0.05059   0.00034   0.01507
  13        2PX        -0.00441   0.10231   0.08654   0.00070   0.04299
  14        2PY        -0.00006   0.00119   0.00104   0.00686   0.00076
  15        2PZ        -0.00081   0.01832   0.03713   0.00069  -0.00823
  16 4   O  1S          0.00000   0.00039  -0.00014  -0.00045  -0.00018
  17        2S          0.00039  -0.04250  -0.00911   0.01269   0.00012
  18        2PX        -0.00121   0.03152   0.01446   0.05652   0.03542
  19        2PY        -0.00018  -0.00749   0.00079  -0.00352   0.00651
  20        2PZ        -0.00052   0.01123   0.02462   0.03112  -0.00264
  21 5   H  1S         -0.00666   0.13940  -0.00002   0.01279   0.23636
  22 6   H  1S          0.00006  -0.00297  -0.00860  -0.00308  -0.00035
  23 7   H  1S          0.00007  -0.00402   0.00032  -0.00630  -0.00578
  24 8   H  1S          0.00011  -0.00914  -0.01150  -0.00045  -0.00070
  25 9   H  1S          0.00015  -0.01098  -0.00668   0.00058  -0.00041
  26 10  H  1S          0.00010  -0.00767  -0.00740  -0.00079  -0.00821
                           6         7         8         9        10
   6 2   C  1S          2.07027
   7        2S         -0.05725   0.91741
   8        2PX         0.00000   0.00000   0.75133
   9        2PY         0.00000   0.00000   0.00000   0.42362
  10        2PZ         0.00000   0.00000   0.00000   0.00000   0.76416
  11 3   C  1S          0.00000   0.00001   0.00004   0.00000   0.00000
  12        2S          0.00001  -0.00069  -0.00395   0.00038  -0.00006
  13        2PX         0.00003  -0.00335  -0.00872   0.00047   0.00002
  14        2PY         0.00001  -0.00076  -0.00121  -0.00005   0.00002
  15        2PZ         0.00000   0.00005  -0.00002   0.00000  -0.00011
  16 4   O  1S          0.00000   0.00041   0.00006  -0.00072  -0.00005
  17        2S          0.00040  -0.04410  -0.00359   0.00181   0.00179
  18        2PX        -0.00016   0.00668  -0.00428   0.01474   0.00004
  19        2PY        -0.00196   0.03707  -0.00913   0.15322   0.01117
  20        2PZ         0.00003  -0.00228  -0.00061  -0.00058   0.00010
  21 5   H  1S          0.00008  -0.00528  -0.00364   0.00040  -0.01024
  22 6   H  1S         -0.00672   0.13951   0.14757   0.00949   0.09272
  23 7   H  1S         -0.00667   0.13951   0.00182   0.06528   0.18116
  24 8   H  1S          0.00000   0.00044   0.00095  -0.00005   0.00000
  25 9   H  1S          0.00000  -0.00020  -0.00049   0.00000  -0.00005
  26 10  H  1S          0.00001  -0.00137  -0.00185   0.00005   0.00024
                          11        12        13        14        15
  11 3   C  1S          2.06652
  12        2S         -0.05180   0.82428
  13        2PX         0.00000   0.00000   0.52737
  14        2PY         0.00000   0.00000   0.00000   0.74466
  15        2PZ         0.00000   0.00000   0.00000   0.00000   0.67478
  16 4   O  1S          0.00000   0.00000   0.00002   0.00001   0.00000
  17        2S          0.00000  -0.00025  -0.00164  -0.00079  -0.00004
  18        2PX         0.00000  -0.00217  -0.00461  -0.00146  -0.00003
  19        2PY         0.00000   0.00018  -0.00006   0.00001  -0.00003
  20        2PZ         0.00000   0.00002  -0.00008  -0.00005   0.00013
  21 5   H  1S          0.00008  -0.00540  -0.00223  -0.00042  -0.00905
  22 6   H  1S          0.00000   0.00017   0.00051   0.00001   0.00002
  23 7   H  1S          0.00001  -0.00103  -0.00210   0.00012   0.00019
  24 8   H  1S         -0.00582   0.11837   0.06673   0.19949   0.00384
  25 9   H  1S         -0.00594   0.12170   0.06247   0.14708   0.05520
  26 10  H  1S         -0.00584   0.11570   0.00352   0.01139   0.25970
                          16        17        18        19        20
  16 4   O  1S          2.11365
  17        2S         -0.11460   2.11775
  18        2PX         0.00000   0.00000   1.23868
  19        2PY         0.00000   0.00000   0.00000   1.23616
  20        2PZ         0.00000   0.00000   0.00000   0.00000   1.11273
  21 5   H  1S          0.00004  -0.00254  -0.00276   0.00033  -0.00540
  22 6   H  1S          0.00003  -0.00181  -0.00339  -0.00374  -0.00021
  23 7   H  1S          0.00003  -0.00186  -0.00022  -0.00539  -0.00158
  24 8   H  1S          0.00000  -0.00016  -0.00048   0.00000  -0.00002
  25 9   H  1S          0.00000   0.00013   0.00031   0.00006   0.00004
  26 10  H  1S          0.00000  -0.00021  -0.00057  -0.00008   0.00006
                          21        22        23        24        25
  21 5   H  1S          0.47997
  22 6   H  1S         -0.00371   0.48607
  23 7   H  1S          0.00111  -0.01639   0.47071
  24 8   H  1S         -0.00178  -0.00002   0.00002   0.52736
  25 9   H  1S         -0.00152  -0.00001   0.00016  -0.01548   0.51312
  26 10  H  1S          0.00151   0.00000   0.00047  -0.01840  -0.01649
                          26
  26 10  H  1S          0.56276
     Gross orbital populations:
                         Total     Alpha     Beta      Spin
   1 1   C  1S          1.99263   0.99629   0.99634  -0.00005
   2        2S          1.19677   0.59081   0.60596  -0.01515
   3        2PX         0.91462   0.44979   0.46483  -0.01504
   4        2PY         0.78927   0.37467   0.41460  -0.03993
   5        2PZ         1.01362   0.49396   0.51966  -0.02570
   6 2   C  1S          1.99260   0.99628   0.99633  -0.00005
   7        2S          1.19874   0.59072   0.60802  -0.01730
   8        2PX         1.06064   0.52488   0.53576  -0.01089
   9        2PY         0.65930   0.29837   0.36092  -0.06255
  10        2PZ         1.09716   0.53693   0.56022  -0.02329
  11 3   C  1S          1.99198   0.99600   0.99598   0.00003
  12        2S          1.19019   0.59803   0.59216   0.00587
  13        2PX         0.86650   0.44509   0.42141   0.02368
  14        2PY         1.10785   0.55540   0.55245   0.00295
  15        2PZ         1.03175   0.51871   0.51304   0.00567
  16 4   O  1S          1.99849   0.99928   0.99921   0.00007
  17        2S          1.91189   0.97027   0.94162   0.02865
  18        2PX         1.37705   0.82988   0.54717   0.28271
  19        2PY         1.41392   0.74951   0.66440   0.08511
  20        2PZ         1.16609   0.92821   0.23787   0.69034
  21 5   H  1S          0.81144   0.42219   0.38924   0.03295
  22 6   H  1S          0.82515   0.42787   0.39728   0.03058
  23 7   H  1S          0.80963   0.41946   0.39017   0.02929
  24 8   H  1S          0.85334   0.42523   0.42811  -0.00289
  25 9   H  1S          0.84278   0.42010   0.42267  -0.00257
  26 10  H  1S          0.88663   0.44207   0.44456  -0.00249
          Condensed to atoms (all electrons):
               1          2          3          4          5          6
     1  C    4.795101   0.311280   0.354469   0.157829   0.381864  -0.014942
     2  C    0.311280   4.812300  -0.017879   0.160040  -0.018672   0.382565
     3  C    0.354469  -0.017879   4.734009  -0.010822  -0.017016   0.000714
     4  O    0.157829   0.160040  -0.010822   7.589762  -0.010325  -0.009117
     5  H    0.381864  -0.018672  -0.017016  -0.010325   0.479967  -0.003714
     6  H   -0.014942   0.382565   0.000714  -0.009117  -0.003714   0.486066
     7  H   -0.015719   0.381102  -0.002815  -0.009023   0.001115  -0.016394
     8  H   -0.021674   0.001349   0.382620  -0.000657  -0.001776  -0.000023
     9  H   -0.017332  -0.000727   0.380517   0.000531  -0.001517  -0.000006
    10  H   -0.023964  -0.002923   0.384461  -0.000789   0.001510   0.000000
               7          8          9         10
     1  C   -0.015719  -0.021674  -0.017332  -0.023964
     2  C    0.381102   0.001349  -0.000727  -0.002923
     3  C   -0.002815   0.382620   0.380517   0.384461
     4  O   -0.009023  -0.000657   0.000531  -0.000789
     5  H    0.001115  -0.001776  -0.001517   0.001510
     6  H   -0.016394  -0.000023  -0.000006   0.000000
     7  H    0.470712   0.000018   0.000164   0.000475
     8  H    0.000018   0.527363  -0.015477  -0.018403
     9  H    0.000164  -0.015477   0.513115  -0.016491
    10  H    0.000475  -0.018403  -0.016491   0.562755
          Atomic-Atomic Spin Densities.
               1          2          3          4          5          6
     1  C   -0.089997   0.012357   0.010786  -0.036663   0.006190   0.000217
     2  C    0.012357  -0.107940   0.000325  -0.031190  -0.000115   0.005854
     3  C    0.010786   0.000325   0.034921  -0.002887  -0.002516  -0.000113
     4  O   -0.036663  -0.031190  -0.002887   1.165765  -0.003033  -0.002774
     5  H    0.006190  -0.000115  -0.002516  -0.003033   0.031522   0.000748
     6  H    0.000217   0.005854  -0.000113  -0.002774   0.000748   0.029346
     7  H    0.000360   0.006697   0.000463  -0.002750  -0.000185  -0.002718
     8  H    0.000299  -0.000005  -0.000742   0.000031  -0.000021   0.000001
     9  H    0.000488   0.000004  -0.001112   0.000043   0.000302   0.000009
    10  H    0.000099  -0.000067  -0.000937   0.000346   0.000055   0.000011
               7          8          9         10
     1  C    0.000360   0.000299   0.000488   0.000099
     2  C    0.006697  -0.000005   0.000004  -0.000067
     3  C    0.000463  -0.000742  -0.001112  -0.000937
     4  O   -0.002750   0.000031   0.000043   0.000346
     5  H   -0.000185  -0.000021   0.000302   0.000055
     6  H   -0.002718   0.000001   0.000009   0.000011
     7  H    0.027627  -0.000002  -0.000053  -0.000151
     8  H   -0.000002  -0.002792   0.000281   0.000064
     9  H   -0.000053   0.000281  -0.002886   0.000354
    10  H   -0.000151   0.000064   0.000354  -0.002266
 Mulliken charges and spin densities:
               1          2
     1  C    0.093087  -0.095863
     2  C   -0.008434  -0.114080
     3  C   -0.188259   0.038188
     4  O    0.132571   1.086889
     5  H    0.188564   0.032946
     6  H    0.174852   0.030582
     7  H    0.190365   0.029288
     8  H    0.146660  -0.002887
     9  H    0.157223  -0.002570
    10  H    0.113371  -0.002492
 Sum of Mulliken charges =   1.00000   1.00000
 Mulliken charges and spin densities with hydrogens summed into heavy atoms:
               1          2
     1  C    0.281651  -0.062917
     2  C    0.356783  -0.054210
     3  C    0.228995   0.030238
     4  O    0.132571   1.086889
 Electronic spatial extent (au):  <R**2>=            252.8859
 Charge=              1.0000 electrons
 Dipole moment (field-independent basis, Debye):
    X=             -0.8655    Y=              0.6878    Z=              0.6466  Tot=              1.2807
 Quadrupole moment (field-independent basis, Debye-Ang):
   XX=            -15.5880   YY=            -20.6537   ZZ=            -19.2135
   XY=             -1.2855   XZ=             -0.1854   YZ=             -0.9496
 Traceless Quadrupole moment (field-independent basis, Debye-Ang):
   XX=              2.8971   YY=             -2.1686   ZZ=             -0.7285
   XY=             -1.2855   XZ=             -0.1854   YZ=             -0.9496
 Octapole moment (field-independent basis, Debye-Ang**2):
  XXX=             -2.8337  YYY=             -2.4937  ZZZ=              0.1177  XYY=             -1.4382
  XXY=              1.4775  XXZ=              1.4742  XZZ=             -2.0237  YZZ=             -0.4906
  YYZ=             -0.6567  XYZ=              0.6246
 Hexadecapole moment (field-independent basis, Debye-Ang**3):
 XXXX=           -171.0241 YYYY=            -57.6533 ZZZZ=            -39.1502 XXXY=              0.1770
 XXXZ=             -1.1974 YYYX=              1.1069 YYYZ=             -0.4522 ZZZX=              0.9963
 ZZZY=             -1.4951 XXYY=            -35.6369 XXZZ=            -38.0463 YYZZ=            -16.1345
 XXYZ=              1.9287 YYXZ=              1.1087 ZZXY=              0.3773
 N-N= 1.247885347085D+02 E-N=-6.817317649383D+02  KE= 1.865965626519D+02
 Orbital energies and kinetic energies (alpha):
                                 1                 2
   1         O               -20.888247         28.660687
   2         O               -11.442672         15.640016
   3         O               -11.438756         15.639638
   4         O               -11.268182         15.629590
   5         O                -1.855281          2.431377
   6         O                -1.270572          1.866964
   7         O                -1.191375          1.516788
   8         O                -1.102786          1.582714
   9         O                -1.046625          1.814186
  10         O                -0.946327          1.638565
  11         O                -0.891775          1.704861
  12         O                -0.841137          1.469467
  13         O                -0.792627          1.364662
  14         O                -0.749681          1.319566
  15         O                -0.716693          1.095215
  16         O                -0.687596          1.296081
  17         V                 0.099328          2.419127
  18         V                 0.149226          3.187135
  19         V                 0.320736          2.177719
  20         V                 0.369075          2.915498
  21         V                 0.392109          2.801817
  22         V                 0.421771          2.356277
  23         V                 0.519572          2.477661
  24         V                 0.528238          2.453107
  25         V                 0.560572          2.606549
  26         V                 0.577981          2.533457
 Orbital energies and kinetic energies (beta):
                                 1                 2
   1         O               -20.857517         28.695357
   2         O               -11.445405         15.637436
   3         O               -11.441047         15.637558
   4         O               -11.267178         15.630488
   5         O                -1.723930          2.137946
   6         O                -1.233008          1.797122
   7         O                -1.177036          1.606856
   8         O                -1.065737          1.468602
   9         O                -0.952799          1.227931
  10         O                -0.898751          1.426633
  11         O                -0.852867          1.537974
  12         O                -0.782580          1.391596
  13         O                -0.749150          1.283337
  14         O                -0.712847          1.104335
  15         O                -0.683393          1.343014
  16         V                -0.133206          2.430008
  17         V                 0.102435          2.467351
  18         V                 0.185795          3.352281
  19         V                 0.341616          2.333532
  20         V                 0.374910          2.846677
  21         V                 0.394732          2.781891
  22         V                 0.424885          2.390098
  23         V                 0.520041          2.520194
  24         V                 0.528913          2.419731
  25         V                 0.561271          2.603017
  26         V                 0.578111          2.527761
 Total kinetic energy from orbitals= 1.865965626519D+02
                          Isotropic Fermi Contact Couplings
        Atom                 a.u.       MegaHertz       Gauss      10(-4) cm-1
     1  C(13)             -0.02603     -29.26123     -10.44113      -9.76050
     2  C(13)             -0.02977     -33.46186     -11.94002     -11.16167
     3  C(13)              0.01236      13.89900       4.95951       4.63621
     4  O(17)              0.13543     -82.09949     -29.29514     -27.38544
     5  H(1)               0.01380      61.66675      22.00423      20.56981
     6  H(1)               0.01264      56.50531      20.16250      18.84814
     7  H(1)               0.01208      53.97456      19.25946      18.00397
     8  H(1)              -0.00111      -4.95695      -1.76876      -1.65346
     9  H(1)              -0.00111      -4.97576      -1.77547      -1.65973
    10  H(1)              -0.00091      -4.06881      -1.45185      -1.35721
 --------------------------------------------------------
       Center         ----  Spin Dipole Couplings  ----
                      3XX-RR        3YY-RR        3ZZ-RR
 --------------------------------------------------------
     1   Atom        0.036031     -0.038256      0.002225
     2   Atom       -0.006685      0.024808     -0.018123
     3   Atom        0.035922     -0.018928     -0.016994
     4   Atom       -0.301050     -1.165710      1.466760
     5   Atom        0.002510     -0.008718      0.006208
     6   Atom       -0.010202      0.017949     -0.007748
     7   Atom       -0.007165      0.024703     -0.017538
     8   Atom        0.010680     -0.003598     -0.007082
     9   Atom        0.002493      0.000451     -0.002945
    10   Atom        0.007962     -0.005315     -0.002647
 --------------------------------------------------------
                        XY            XZ            YZ
 --------------------------------------------------------
     1   Atom        0.009312      0.027640     -0.000054
     2   Atom       -0.044690     -0.008861     -0.018844
     3   Atom        0.014379     -0.011035     -0.001751
     4   Atom        0.322721     -1.637001     -0.617466
     5   Atom        0.005190      0.017805      0.013525
     6   Atom       -0.014425      0.001064      0.009137
     7   Atom       -0.004826      0.001294     -0.005609
     8   Atom       -0.001833      0.001871     -0.000917
     9   Atom        0.005787      0.002493      0.003213
    10   Atom        0.008544     -0.005274     -0.004337
 --------------------------------------------------------


 ---------------------------------------------------------------------------------
              Anisotropic Spin Dipole Couplings in Principal Axis System
 ---------------------------------------------------------------------------------

       Atom             a.u.   MegaHertz   Gauss  10(-4) cm-1        Axes

              Baa    -0.0398    -5.337    -1.904    -1.780 -0.1593  0.9815  0.1061
     1 C(13)  Bbb    -0.0125    -1.675    -0.598    -0.559 -0.4632 -0.1692  0.8700
              Bcc     0.0523     7.012     2.502     2.339  0.8718  0.0894  0.4816
 
              Baa    -0.0492    -6.606    -2.357    -2.203  0.6695  0.5352  0.5150
     2 C(13)  Bbb    -0.0087    -1.163    -0.415    -0.388 -0.4988 -0.1898  0.8457
              Bcc     0.0579     7.769     2.772     2.591 -0.5504  0.8231 -0.1399
 
              Baa    -0.0227    -3.047    -1.087    -1.016 -0.2742  0.9301 -0.2446
     3 C(13)  Bbb    -0.0189    -2.533    -0.904    -0.845  0.1169  0.2847  0.9515
              Bcc     0.0416     5.580     1.991     1.861  0.9546  0.2322 -0.1868
 
              Baa    -1.3258    95.937    34.233    32.001  0.4627  0.7689  0.4412
     4 O(17)  Bbb    -1.2469    90.221    32.193    30.095  0.7307 -0.6126  0.3014
              Bcc     2.5727  -186.158   -66.426   -62.096 -0.5020 -0.1830  0.8453
 
              Baa    -0.0186    -9.910    -3.536    -3.305  0.3700  0.6775 -0.6356
     5 H(1)   Bbb    -0.0088    -4.717    -1.683    -1.573  0.7164 -0.6437 -0.2691
              Bcc     0.0274    14.627     5.219     4.879  0.5915  0.3558  0.7236
 
              Baa    -0.0185    -9.870    -3.522    -3.292  0.7927  0.4236 -0.4384
     6 H(1)   Bbb    -0.0075    -3.980    -1.420    -1.327  0.4962 -0.0303  0.8677
              Bcc     0.0260    13.850     4.942     4.620 -0.3543  0.9053  0.2342
 
              Baa    -0.0183    -9.770    -3.486    -3.259 -0.0621  0.1222  0.9906
     7 H(1)   Bbb    -0.0079    -4.194    -1.496    -1.399  0.9872  0.1537  0.0429
              Bcc     0.0262    13.964     4.983     4.658 -0.1470  0.9805 -0.1302
 
              Baa    -0.0074    -3.960    -1.413    -1.321 -0.0812  0.1956  0.9773
     8 H(1)   Bbb    -0.0037    -1.977    -0.705    -0.659  0.1476  0.9721 -0.1823
              Bcc     0.0111     5.936     2.118     1.980  0.9857 -0.1294  0.1078
 
              Baa    -0.0052    -2.758    -0.984    -0.920 -0.3111  0.6924 -0.6510
     9 H(1)   Bbb    -0.0035    -1.889    -0.674    -0.630 -0.6307  0.3620  0.6864
              Bcc     0.0087     4.648     1.658     1.550  0.7109  0.6242  0.3241
 
              Baa    -0.0100    -5.317    -1.897    -1.773 -0.3435  0.8955  0.2832
    10 H(1)   Bbb    -0.0047    -2.528    -0.902    -0.843  0.4439 -0.1109  0.8892
              Bcc     0.0147     7.845     2.799     2.617  0.8276  0.4311 -0.3594
 

 ---------------------------------------------------------------------------------

 Unable to Open any file for archive entry.
 1\1\GINC-MEDUSA\SP\UHF\STO-3G\C3H6O1(1+,2)\PLESTRAN\01-Oct-2015\0\\# u
 hf/sto-3g gfinput pop=full nosymm Field=X-100\\S-Propylene Oxide STO-3
 G\\1,2\C,0,0.152133,-0.0358,0.485797\C,0,-1.039475,0.615938,-0.061249\
 C,0,1.507144,0.097806,-0.14846\O,0,-0.828215,-0.788248,-0.239431\H,0,0
 .153725,-0.249258,1.552136\H,0,-1.863178,0.881921,0.593333\H,0,-0.9498
 07,1.21421,-0.962771\H,0,2.076806,-0.826189,-0.036671\H,0,2.074465,0.9
 01788,0.325106\H,0,1.414895,0.315852,-1.212218\\Version=ES64L-GDVRevI.
 03+\HF=-189.2658534\EFC=0.\S2=0.761277\S2-1=0.\S2A=0.750085\RMSD=9.611
 e-09\Dipole=-0.3405293,0.2705892,0.2543794\Quadrupole=2.1539,-1.612295
 2,-0.5416047,-0.9557596,-0.1378434,-0.7060028\PG=C01 [X(C3H6O1)]\\@
 The archive entry for this job was punched.


 ABALONE: AN EXPRESSION OF DISBELIEF.
 Job cpu time:       0 days  0 hours  0 minutes  0.9 seconds.
 Elapsed time:       0 days  0 hours  0 minutes  0.8 seconds.
 File lengths (MBytes):  RWF=      5 Int=      0 D2E=      0 Chk=      1 Scr=      1
 Normal termination of Gaussian DV at Thu Oct  1 15:44:14 2015.
