 Entering Gaussian System, Link 0=gdv
 Input=propylene-oxide_6-31G_field.com
 Output=propylene-oxide_6-31G_field.log
 Initial command:
 /home/gauss/gdvi03p/gdv/l1.exe "/home/GauScr/Gau-12031.inp" -scrdir="/home/GauScr/"
 Entering Link 1 = /home/gauss/gdvi03p/gdv/l1.exe PID=     12032.
  
 Copyright (c) 1988,1990,1992,1993,1995,1998,2003,2009,2015,
            Gaussian, Inc.  All Rights Reserved.
  
 This is the private, development version of
 the Gaussian(R) DV system of programs. It is based on
 the Gaussian(R) 09 system (copyright 2009, Gaussian, Inc.),
 the Gaussian(R) 03 system (copyright 2003, Gaussian, Inc.),
 the Gaussian(R) 98 system (copyright 1998, Gaussian, Inc.),
 the Gaussian(R) 94 system (copyright 1995, Gaussian, Inc.),
 the Gaussian 92(TM) system (copyright 1992, Gaussian, Inc.),
 the Gaussian 90(TM) system (copyright 1990, Gaussian, Inc.),
 the Gaussian 88(TM) system (copyright 1988, Gaussian, Inc.),
 the Gaussian 86(TM) system (copyright 1986, Carnegie Mellon
 University), and the Gaussian 82(TM) system (copyright 1983,
 Carnegie Mellon University). Gaussian is a federally registered
 trademark of Gaussian, Inc.
  
 This software contains proprietary and confidential information,
 including trade secrets, belonging to Gaussian, Inc.
  
 This software is provided under written license and may be
 used, copied, transmitted, or stored only in accord with that
 written license.
  
 The following legend is applicable only to US Government
 contracts under FAR:
  
                    RESTRICTED RIGHTS LEGEND
  
 Use, reproduction and disclosure by the US Government is
 subject to restrictions as set forth in subparagraphs (a)
 and (c) of the Commercial Computer Software - Restricted
 Rights clause in FAR 52.227-19.
  
 Gaussian, Inc.
 340 Quinnipiac St., Bldg. 40, Wallingford CT 06492
  
  
 ---------------------------------------------------------------
 Warning -- This program may not be used in any manner that
 competes with the business of Gaussian, Inc. or will provide
 assistance to any competitor of Gaussian, Inc.  The licensee
 of this program is prohibited from giving any competitor of
 Gaussian, Inc. access to this program.  By using this program,
 the user acknowledges that Gaussian, Inc. is engaged in the
 business of creating and licensing software in the field of
 computational chemistry and represents and warrants to the
 licensee that it is not a competitor of Gaussian, Inc. and that
 it will not use this program in any manner prohibited above.
 ---------------------------------------------------------------
  

 Cite this work as:
 Gaussian Development Version, Revision I.03+,
 M. J. Frisch, G. W. Trucks, H. B. Schlegel, G. E. Scuseria, 
 M. A. Robb, J. R. Cheeseman, G. Scalmani, V. Barone, B. Mennucci, 
 G. A. Petersson, H. Nakatsuji, M. Caricato, X. Li, H. P. Hratchian, 
 J. Bloino, B. G. Janesko, A. F. Izmaylov, A. Marenich, F. Lipparini, 
 G. Zheng, J. L. Sonnenberg, W. Liang, M. Hada, M. Ehara, K. Toyota, 
 R. Fukuda, J. Hasegawa, M. Ishida, T. Nakajima, Y. Honda, O. Kitao, 
 H. Nakai, T. Vreven, K. Throssell, J. A. Montgomery, Jr., 
 J. E. Peralta, F. Ogliaro, M. Bearpark, J. J. Heyd, E. Brothers, 
 K. N. Kudin, V. N. Staroverov, T. Keith, R. Kobayashi, J. Normand, 
 K. Raghavachari, A. Rendell, J. C. Burant, S. S. Iyengar, J. Tomasi, 
 M. Cossi, N. Rega, J. M. Millam, M. Klene, J. E. Knox, J. B. Cross, 
 V. Bakken, C. Adamo, J. Jaramillo, R. Gomperts, R. E. Stratmann, 
 O. Yazyev, A. J. Austin, R. Cammi, C. Pomelli, J. W. Ochterski, 
 R. L. Martin, K. Morokuma, V. G. Zakrzewski, G. A. Voth, 
 P. Salvador, J. J. Dannenberg, S. Dapprich, P. V. Parandekar, 
 N. J. Mayhall, A. D. Daniels, O. Farkas, J. B. Foresman, 
 J. V. Ortiz, J. Cioslowski, and D. J. Fox, 
 Gaussian, Inc., Wallingford CT, 2014.
 
 *******************************************
 Gaussian DV:  ES64L-GDVRevI.03+  2-May-2015
                  1-Oct-2015 
 *******************************************
 -----------------------------------------------
 # uhf/6-31G gfinput pop=full nosymm Field=X-100
 -----------------------------------------------
 1/38=1,172=1/1;
 2/12=2,15=1,17=6,18=5,40=1/2;
 3/5=1,6=6,11=2,14=1,15=-100,24=10,25=1,30=1,116=2/1,2,3;
 4//1;
 5/5=2,38=5/2;
 6/7=3,28=1/1;
 99/5=1,9=1/99;
 -----------------------
 S-Propylene Oxide 6-31G
 -----------------------
 Symbolic Z-matrix:
 Charge =  1 Multiplicity = 2
 C                     0.15213  -0.0358    0.4858 
 C                    -1.03947   0.61594  -0.06125 
 C                     1.50714   0.09781  -0.14846 
 O                    -0.82822  -0.78825  -0.23943 
 H                     0.15373  -0.24926   1.55214 
 H                    -1.86318   0.88192   0.59333 
 H                    -0.94981   1.21421  -0.96277 
 H                     2.07681  -0.82619  -0.03667 
 H                     2.07447   0.90179   0.32511 
 H                     1.4149    0.31585  -1.21222 
 
                          Input orientation:                          
 ---------------------------------------------------------------------
 Center     Atomic      Atomic             Coordinates (Angstroms)
 Number     Number       Type             X           Y           Z
 ---------------------------------------------------------------------
      1          6           0        0.152133   -0.035800    0.485797
      2          6           0       -1.039475    0.615938   -0.061249
      3          6           0        1.507144    0.097806   -0.148460
      4          8           0       -0.828215   -0.788248   -0.239431
      5          1           0        0.153725   -0.249258    1.552136
      6          1           0       -1.863178    0.881921    0.593333
      7          1           0       -0.949807    1.214210   -0.962771
      8          1           0        2.076806   -0.826189   -0.036671
      9          1           0        2.074465    0.901788    0.325106
     10          1           0        1.414895    0.315852   -1.212218
 ---------------------------------------------------------------------
                    Distance matrix (angstroms):
                    1          2          3          4          5
     1  C    0.000000
     2  C    1.464224   0.000000
     3  C    1.502061   2.600257   0.000000
     4  O    1.432905   1.431125   2.499454   0.000000
     5  H    1.087495   2.185246   2.200960   2.112919   0.000000
     6  H    2.217037   1.085224   3.538950   2.134036   2.503351
     7  H    2.207973   1.085685   2.818877   2.132567   3.111957
     8  H    2.145240   3.433881   1.091228   2.912336   2.560351
     9  H    2.144820   3.150810   1.092019   3.405947   2.553380
    10  H    2.145107   2.727400   1.089787   2.682703   3.090559
                    6          7          8          9         10
     6  H    0.000000
     7  H    1.834699   0.000000
     8  H    4.340279   3.765803   0.000000
     9  H    3.946818   3.301887   1.765444   0.000000
    10  H    3.784998   2.541867   1.767567   1.772489   0.000000
 Symmetry turned off by external request.
 Stoichiometry    C3H6O(1+,2)
 Framework group  C1[X(C3H6O)]
 Deg. of freedom    24
 Full point group                 C1      NOp   1
 Rotational constants (GHZ):     18.2269979      6.6669563      5.9403328
 Standard basis: 6-31G (6D, 7F)
 The following finite field(s) will be applied:
 An electric field of             -0.0100  0.0000  0.0000
 AO basis set in the form of general basis input (Overlap normalization):
      1 0
 S   6 1.00       0.000000000000
      0.3047524880D+04  0.1834737132D-02
      0.4573695180D+03  0.1403732281D-01
      0.1039486850D+03  0.6884262226D-01
      0.2921015530D+02  0.2321844432D+00
      0.9286662960D+01  0.4679413484D+00
      0.3163926960D+01  0.3623119853D+00
 SP   3 1.00       0.000000000000
      0.7868272350D+01 -0.1193324198D+00  0.6899906659D-01
      0.1881288540D+01 -0.1608541517D+00  0.3164239610D+00
      0.5442492580D+00  0.1143456438D+01  0.7443082909D+00
 SP   1 1.00       0.000000000000
      0.1687144782D+00  0.1000000000D+01  0.1000000000D+01
 ****
      2 0
 S   6 1.00       0.000000000000
      0.3047524880D+04  0.1834737132D-02
      0.4573695180D+03  0.1403732281D-01
      0.1039486850D+03  0.6884262226D-01
      0.2921015530D+02  0.2321844432D+00
      0.9286662960D+01  0.4679413484D+00
      0.3163926960D+01  0.3623119853D+00
 SP   3 1.00       0.000000000000
      0.7868272350D+01 -0.1193324198D+00  0.6899906659D-01
      0.1881288540D+01 -0.1608541517D+00  0.3164239610D+00
      0.5442492580D+00  0.1143456438D+01  0.7443082909D+00
 SP   1 1.00       0.000000000000
      0.1687144782D+00  0.1000000000D+01  0.1000000000D+01
 ****
      3 0
 S   6 1.00       0.000000000000
      0.3047524880D+04  0.1834737132D-02
      0.4573695180D+03  0.1403732281D-01
      0.1039486850D+03  0.6884262226D-01
      0.2921015530D+02  0.2321844432D+00
      0.9286662960D+01  0.4679413484D+00
      0.3163926960D+01  0.3623119853D+00
 SP   3 1.00       0.000000000000
      0.7868272350D+01 -0.1193324198D+00  0.6899906659D-01
      0.1881288540D+01 -0.1608541517D+00  0.3164239610D+00
      0.5442492580D+00  0.1143456438D+01  0.7443082909D+00
 SP   1 1.00       0.000000000000
      0.1687144782D+00  0.1000000000D+01  0.1000000000D+01
 ****
      4 0
 S   6 1.00       0.000000000000
      0.5484671660D+04  0.1831074430D-02
      0.8252349460D+03  0.1395017220D-01
      0.1880469580D+03  0.6844507810D-01
      0.5296450000D+02  0.2327143360D+00
      0.1689757040D+02  0.4701928980D+00
      0.5799635340D+01  0.3585208530D+00
 SP   3 1.00       0.000000000000
      0.1553961625D+02 -0.1107775495D+00  0.7087426823D-01
      0.3599933586D+01 -0.1480262627D+00  0.3397528391D+00
      0.1013761750D+01  0.1130767015D+01  0.7271585773D+00
 SP   1 1.00       0.000000000000
      0.2700058226D+00  0.1000000000D+01  0.1000000000D+01
 ****
      5 0
 S   3 1.00       0.000000000000
      0.1873113696D+02  0.3349460434D-01
      0.2825394365D+01  0.2347269535D+00
      0.6401216923D+00  0.8137573261D+00
 S   1 1.00       0.000000000000
      0.1612777588D+00  0.1000000000D+01
 ****
      6 0
 S   3 1.00       0.000000000000
      0.1873113696D+02  0.3349460434D-01
      0.2825394365D+01  0.2347269535D+00
      0.6401216923D+00  0.8137573261D+00
 S   1 1.00       0.000000000000
      0.1612777588D+00  0.1000000000D+01
 ****
      7 0
 S   3 1.00       0.000000000000
      0.1873113696D+02  0.3349460434D-01
      0.2825394365D+01  0.2347269535D+00
      0.6401216923D+00  0.8137573261D+00
 S   1 1.00       0.000000000000
      0.1612777588D+00  0.1000000000D+01
 ****
      8 0
 S   3 1.00       0.000000000000
      0.1873113696D+02  0.3349460434D-01
      0.2825394365D+01  0.2347269535D+00
      0.6401216923D+00  0.8137573261D+00
 S   1 1.00       0.000000000000
      0.1612777588D+00  0.1000000000D+01
 ****
      9 0
 S   3 1.00       0.000000000000
      0.1873113696D+02  0.3349460434D-01
      0.2825394365D+01  0.2347269535D+00
      0.6401216923D+00  0.8137573261D+00
 S   1 1.00       0.000000000000
      0.1612777588D+00  0.1000000000D+01
 ****
     10 0
 S   3 1.00       0.000000000000
      0.1873113696D+02  0.3349460434D-01
      0.2825394365D+01  0.2347269535D+00
      0.6401216923D+00  0.8137573261D+00
 S   1 1.00       0.000000000000
      0.1612777588D+00  0.1000000000D+01
 ****

    48 basis functions,   112 primitive gaussians,    48 cartesian basis functions
    16 alpha electrons       15 beta electrons
       nuclear repulsion energy       124.7885346707 Hartrees.
 NAtoms=   10 NActive=   10 NUniq=   10 SFac= 1.00D+00 NAtFMM=   60 NAOKFM=F Big=F
 Integral buffers will be    131072 words long.
 Raffenetti 2 integral format.
 Two-electron integral symmetry is turned off.
 One-electron integrals computed using PRISM.
 NBasis=    48 RedAO= T EigKep=  5.28D-03  NBF=    48
 NBsUse=    48 1.00D-06 EigRej= -1.00D+00 NBFU=    48
 The nuclear repulsion energy is now       124.7885347085 hartrees.
 ExpMin= 1.61D-01 ExpMax= 5.48D+03 ExpMxC= 8.25D+02 IAcc=1 IRadAn=         1 AccDes= 0.00D+00
 Harris functional with IExCor=  205 and IRadAn=       1 diagonalized for initial guess.
 HarFok:  IExCor=  205 AccDes= 0.00D+00 IRadAn=         1 IDoV= 1 UseB2=F ITyADJ=14
 ICtDFT=  3500011 ScaDFX=  1.000000  1.000000  1.000000  1.000000
 FoFCou: FMM=F IPFlag=           0 FMFlag=      100000 FMFlg1=           0
         NFxFlg=           0 DoJE=T BraDBF=F KetDBF=T FulRan=T
         wScrn=  0.000000 ICntrl=       500 IOpCl=  0 I1Cent=   200000004 NGrid=           0
         NMat0=    1 NMatS0=      1 NMatT0=    0 NMatD0=    1 NMtDS0=    0 NMtDT0=    0
 Symmetry not used in FoFCou.
 Initial guess <Sx>= 0.0000 <Sy>= 0.0000 <Sz>= 0.5000 <S**2>= 0.7500 S= 0.5000
 Keep R1 and R2 ints in memory in canonical form, NReq=2213710.
 Requested convergence on RMS density matrix=1.00D-08 within 128 cycles.
 Requested convergence on MAX density matrix=1.00D-06.
 Requested convergence on             energy=1.00D-06.
 No special actions if energy rises.
 SCF Done:  E(UHF) =  -191.480777800     A.U. after   21 cycles
            NFock= 21  Conv=0.41D-08     -V/T= 1.9977
 <Sx>= 0.0000 <Sy>= 0.0000 <Sz>= 0.5000 <S**2>= 0.7627 S= 0.5064
 <L.S>= 0.000000000000E+00
 Annihilation of the first spin contaminant:
 S**2 before annihilation     0.7627,   after     0.7501

 **********************************************************************

            Population analysis using the SCF density.

 **********************************************************************

 Alpha  occ. eigenvalues --  -21.02882 -11.57522 -11.57246 -11.42212  -1.86420
 Alpha  occ. eigenvalues --   -1.29059  -1.21272  -1.12026  -1.06971  -0.96744
 Alpha  occ. eigenvalues --   -0.91247  -0.85632  -0.80681  -0.76967  -0.73589
 Alpha  occ. eigenvalues --   -0.70526
 Alpha virt. eigenvalues --   -0.01724   0.01667   0.01867   0.05114   0.08542
 Alpha virt. eigenvalues --    0.11605   0.14049   0.16432   0.20345   0.25689
 Alpha virt. eigenvalues --    0.45095   0.52006   0.52840   0.56591   0.60664
 Alpha virt. eigenvalues --    0.63222   0.65223   0.75274   0.79669   0.82165
 Alpha virt. eigenvalues --    0.89023   0.92254   0.95401   0.99295   1.01477
 Alpha virt. eigenvalues --    1.05739   1.06255   1.07684   1.12556   1.33588
 Alpha virt. eigenvalues --    1.52387   1.68177
  Beta  occ. eigenvalues --  -20.98251 -11.57753 -11.57425 -11.42086  -1.74120
  Beta  occ. eigenvalues --   -1.25153  -1.19379  -1.08604  -0.96632  -0.91522
  Beta  occ. eigenvalues --   -0.86959  -0.79614  -0.76495  -0.73146  -0.70062
  Beta virt. eigenvalues --   -0.22862  -0.00299   0.02128   0.02931   0.06168
  Beta virt. eigenvalues --    0.08684   0.12097   0.14213   0.16755   0.20605
  Beta virt. eigenvalues --    0.25787   0.45402   0.52175   0.54027   0.56918
  Beta virt. eigenvalues --    0.62715   0.63619   0.66907   0.75818   0.80449
  Beta virt. eigenvalues --    0.82553   0.92259   0.93307   0.99132   1.00648
  Beta virt. eigenvalues --    1.04489   1.06183   1.07851   1.09891   1.14851
  Beta virt. eigenvalues --    1.34418   1.52675   1.72437
     Alpha Molecular Orbital Coefficients:
                           1         2         3         4         5
                           O         O         O         O         O
     Eigenvalues --   -21.02882 -11.57522 -11.57246 -11.42212  -1.86420
   1 1   C  1S          0.00002   0.14564   0.98561  -0.00226  -0.06411
   2        2S         -0.00020   0.00307   0.02589  -0.00046   0.12944
   3        2PX        -0.00027  -0.00010  -0.00181  -0.00017  -0.07585
   4        2PY        -0.00037  -0.00031  -0.00067  -0.00001  -0.02716
   5        2PZ        -0.00016  -0.00011  -0.00122   0.00012  -0.05063
   6        3S          0.00364   0.00299  -0.02148   0.00354  -0.02250
   7        3PX        -0.00141  -0.00266   0.00245   0.00285   0.02352
   8        3PY        -0.00131   0.00094  -0.00106   0.00010   0.02194
   9        3PZ        -0.00149  -0.00065   0.00419  -0.00091   0.02797
  10 2   C  1S          0.00004   0.98545  -0.14587   0.00004  -0.06522
  11        2S         -0.00004   0.02486  -0.00454  -0.00047   0.12750
  12        2PX        -0.00008   0.00038  -0.00017  -0.00015   0.03573
  13        2PY        -0.00051  -0.00197   0.00031   0.00004  -0.08950
  14        2PZ        -0.00016  -0.00013  -0.00005   0.00001   0.00163
  15        3S          0.00277  -0.01508   0.01056   0.00133  -0.00111
  16        3PX        -0.00012  -0.00125   0.00353   0.00061  -0.00017
  17        3PY        -0.00175   0.00143  -0.00204  -0.00047   0.03183
  18        3PZ        -0.00028  -0.00064   0.00063   0.00013   0.00411
  19 3   C  1S          0.00000   0.00020   0.00206   0.99618  -0.00672
  20        2S         -0.00017  -0.00043  -0.00055   0.02610   0.01327
  21        2PX         0.00020   0.00018  -0.00006  -0.00075  -0.01359
  22        2PY         0.00011  -0.00002   0.00004  -0.00005  -0.00295
  23        2PZ         0.00000   0.00000   0.00013   0.00023   0.00207
  24        3S         -0.00032   0.00129   0.00518  -0.01866   0.01489
  25        3PX         0.00018  -0.00081  -0.00315   0.00127  -0.00458
  26        3PY        -0.00008  -0.00002  -0.00022   0.00014  -0.00104
  27        3PZ         0.00023   0.00023  -0.00044  -0.00062  -0.00336
  28 4   O  1S          0.99559  -0.00003  -0.00003   0.00000  -0.20453
  29        2S          0.02430   0.00032   0.00012  -0.00020   0.46465
  30        2PX         0.00071   0.00009  -0.00007  -0.00012   0.04260
  31        2PY         0.00218   0.00005   0.00012  -0.00002   0.12298
  32        2PZ         0.00090   0.00006  -0.00003  -0.00001   0.05066
  33        3S         -0.01192   0.00021   0.00108   0.00010   0.49679
  34        3PX        -0.00143  -0.00095   0.00120   0.00028   0.03591
  35        3PY        -0.00367  -0.00059  -0.00109  -0.00005   0.09893
  36        3PZ        -0.00160  -0.00071   0.00029   0.00016   0.04253
  37 5   H  1S         -0.00023  -0.00023   0.00006  -0.00011   0.01666
  38        2S          0.00005   0.00042   0.00169   0.00025  -0.00353
  39 6   H  1S         -0.00026  -0.00001  -0.00022  -0.00003   0.01690
  40        2S         -0.00019   0.00260   0.00000   0.00020   0.00044
  41 7   H  1S         -0.00023   0.00000  -0.00037  -0.00009   0.01653
  42        2S         -0.00007   0.00241  -0.00065  -0.00006  -0.00176
  43 8   H  1S          0.00004  -0.00003  -0.00019   0.00010   0.00051
  44        2S         -0.00029   0.00019   0.00031   0.00307   0.00127
  45 9   H  1S         -0.00006  -0.00006  -0.00012   0.00009   0.00131
  46        2S          0.00031   0.00004   0.00062   0.00308  -0.00599
  47 10  H  1S          0.00000  -0.00014  -0.00032   0.00008   0.00168
  48        2S          0.00009   0.00004  -0.00076   0.00306  -0.00029
                           6         7         8         9        10
                           O         O         O         O         O
     Eigenvalues --    -1.29059  -1.21272  -1.12026  -1.06971  -0.96744
   1 1   C  1S          0.13900   0.05209  -0.07068  -0.02886   0.04267
   2        2S         -0.28875  -0.09517   0.14661   0.05912  -0.06538
   3        2PX         0.00706  -0.14801  -0.14354  -0.09874  -0.09316
   4        2PY        -0.06006   0.08943  -0.07583  -0.01911   0.03410
   5        2PZ         0.03413   0.02004   0.12463  -0.11963  -0.13903
   6        3S         -0.26141  -0.15616   0.19886   0.11465  -0.22869
   7        3PX         0.03147   0.00615  -0.07025  -0.00201   0.01457
   8        3PY        -0.00772   0.00257  -0.00943   0.02234   0.02516
   9        3PZ         0.03201   0.02724   0.04993  -0.06038  -0.01913
  10 2   C  1S          0.09323  -0.14089   0.04705   0.02687   0.04326
  11        2S         -0.20167   0.28762  -0.08617  -0.04093  -0.07667
  12        2PX        -0.09239  -0.03253   0.03703   0.17316   0.10862
  13        2PY        -0.00326  -0.02566  -0.04152  -0.02717  -0.27249
  14        2PZ        -0.04397   0.00532   0.16108  -0.06915   0.02470
  15        3S         -0.13812   0.33446  -0.16787  -0.12738  -0.14345
  16        3PX        -0.00462   0.01564  -0.02230   0.04305   0.04104
  17        3PY         0.00222  -0.02270   0.00593   0.02415  -0.04907
  18        3PZ        -0.00326   0.01507   0.05073  -0.04645   0.03031
  19 3   C  1S          0.09273   0.10997   0.08498   0.08911  -0.04675
  20        2S         -0.17914  -0.21066  -0.16329  -0.15973   0.08454
  21        2PX         0.06079   0.03433  -0.01095  -0.05649   0.05861
  22        2PY        -0.00093   0.01624  -0.01099  -0.01011   0.01881
  23        2PZ        -0.02270  -0.01792   0.02632  -0.00903  -0.05663
  24        3S         -0.14814  -0.19891  -0.16485  -0.25408   0.14729
  25        3PX        -0.00312   0.00760   0.00277   0.02112   0.00043
  26        3PY        -0.00196   0.00696   0.00100  -0.00672   0.00594
  27        3PZ        -0.01637  -0.00701   0.01217  -0.00557  -0.01539
  28 4   O  1S         -0.10295   0.04360   0.02043   0.02443   0.02295
  29        2S          0.24095  -0.10524  -0.05158  -0.06323  -0.07319
  30        2PX        -0.10051  -0.17028   0.04267   0.43675  -0.15331
  31        2PY        -0.14231   0.19342  -0.06919   0.16895   0.38603
  32        2PZ        -0.06361   0.01290   0.42772  -0.24884   0.17996
  33        3S          0.36914  -0.15105  -0.06482  -0.06558   0.00245
  34        3PX        -0.02912  -0.07299   0.01391   0.23251  -0.08144
  35        3PY        -0.03110   0.07443  -0.03426   0.09547   0.24689
  36        3PZ        -0.01124   0.00618   0.21645  -0.13664   0.11692
  37 5   H  1S         -0.08047  -0.03684   0.11119  -0.02521  -0.11508
  38        2S         -0.01316  -0.01260   0.01785  -0.00009  -0.04697
  39 6   H  1S         -0.05313   0.11532  -0.01607  -0.10247  -0.12103
  40        2S         -0.00376   0.02289  -0.01229  -0.03062  -0.06310
  41 7   H  1S         -0.05767   0.09762  -0.10011  -0.00090  -0.12912
  42        2S         -0.00622   0.01677  -0.02370  -0.01139  -0.05409
  43 8   H  1S         -0.04257  -0.06614  -0.05466  -0.07087   0.03948
  44        2S          0.00559  -0.00535  -0.00694  -0.01674   0.00994
  45 9   H  1S         -0.04580  -0.06031  -0.05898  -0.07916   0.04571
  46        2S          0.00584  -0.00489  -0.01556  -0.02084   0.00997
  47 10  H  1S         -0.04928  -0.06160  -0.07279  -0.05480   0.06157
  48        2S         -0.00875  -0.00933  -0.01453  -0.00287   0.01843
                          11        12        13        14        15
                           O         O         O         O         O
     Eigenvalues --    -0.91247  -0.85632  -0.80681  -0.76967  -0.73589
   1 1   C  1S          0.06067   0.02286  -0.01963   0.03717   0.00567
   2        2S         -0.13085  -0.04682   0.03578  -0.07404  -0.00485
   3        2PX        -0.10415  -0.05513  -0.06524  -0.31167   0.09983
   4        2PY        -0.07555  -0.08076   0.27580   0.03287   0.01104
   5        2PZ        -0.23763   0.04959  -0.14019   0.23139  -0.13833
   6        3S         -0.17863  -0.09527   0.11661  -0.17658  -0.02506
   7        3PX        -0.01789   0.00295  -0.02433  -0.20498   0.11774
   8        3PY         0.00120  -0.02057   0.12561   0.00517   0.03031
   9        3PZ        -0.11459   0.01671  -0.14518   0.21502  -0.07060
  10 2   C  1S         -0.03202  -0.00082  -0.00321  -0.00803  -0.00274
  11        2S          0.07411   0.00270   0.00956   0.02317   0.01553
  12        2PX        -0.04931  -0.24777   0.15999   0.14791  -0.04312
  13        2PY         0.14655  -0.07902   0.00134   0.04265   0.00386
  14        2PZ        -0.00290   0.31026   0.27776  -0.03316   0.00083
  15        3S          0.06166  -0.00717   0.01527   0.02721   0.00665
  16        3PX        -0.03652  -0.13420   0.05126   0.10163  -0.04732
  17        3PY         0.05290  -0.04210  -0.02959   0.03215   0.01579
  18        3PZ         0.00202   0.18999   0.16060  -0.06817   0.02471
  19 3   C  1S         -0.02541  -0.01728   0.00572  -0.01330  -0.00219
  20        2S          0.04888   0.03220  -0.00609   0.01103   0.01158
  21        2PX         0.04435   0.09818  -0.11489   0.34237   0.05434
  22        2PY        -0.01784  -0.05872   0.21252   0.17083   0.16184
  23        2PZ        -0.11749  -0.01640  -0.07644  -0.04788   0.39893
  24        3S          0.06164   0.05551  -0.07506   0.17641  -0.04242
  25        3PX         0.00911   0.02794  -0.02522   0.07647   0.07191
  26        3PY        -0.01026  -0.03554   0.10913   0.08484   0.10656
  27        3PZ        -0.03507  -0.00488  -0.03082   0.01172   0.20441
  28 4   O  1S          0.00279   0.00333  -0.01152  -0.00760  -0.00679
  29        2S         -0.00965  -0.01286   0.04491   0.02027   0.00891
  30        2PX         0.28303   0.23532  -0.07737   0.13117   0.08950
  31        2PY        -0.15301   0.12556  -0.23108  -0.05644   0.03254
  32        2PZ         0.35062  -0.24015  -0.10741  -0.07903   0.08095
  33        3S          0.00868   0.01445  -0.03374   0.03515   0.08503
  34        3PX         0.18222   0.16562  -0.06783   0.10114   0.07354
  35        3PY        -0.09370   0.09124  -0.18373  -0.04198   0.03855
  36        3PZ         0.22742  -0.16092  -0.08483  -0.05893   0.07641
  37 5   H  1S         -0.19296   0.01250  -0.09888   0.09924  -0.11169
  38        2S         -0.07179   0.01179  -0.03155   0.02738  -0.07785
  39 6   H  1S          0.08131   0.22830   0.03825  -0.07606   0.03347
  40        2S          0.03808   0.11660   0.01063  -0.03783   0.00908
  41 7   H  1S          0.08744  -0.19762  -0.13560   0.06041  -0.00438
  42        2S          0.04746  -0.08530  -0.06727   0.01982  -0.00588
  43 8   H  1S          0.03416   0.06867  -0.14642   0.02977  -0.03964
  44        2S          0.01664   0.03071  -0.07276   0.02638  -0.02010
  45 9   H  1S         -0.00003   0.01678   0.03212   0.18420   0.20885
  46        2S         -0.00270   0.01046   0.01480   0.10754   0.11431
  47 10  H  1S          0.07953   0.01066   0.07013   0.04858  -0.23829
  48        2S          0.04080   0.00790   0.04862   0.03584  -0.16648
                          16        17        18        19        20
                           O         V         V         V         V
     Eigenvalues --    -0.70526  -0.01724   0.01667   0.01867   0.05114
   1 1   C  1S          0.00384   0.04682   0.03576   0.02393  -0.03892
   2        2S         -0.01249  -0.06024  -0.07617  -0.04958   0.05542
   3        2PX         0.12273   0.13721   0.09263  -0.04654  -0.06147
   4        2PY        -0.18279  -0.09373   0.42064  -0.05668  -0.04032
   5        2PZ         0.08266   0.05558   0.11319  -0.17512   0.14485
   6        3S         -0.02695  -0.52503  -0.28750  -0.65006   0.54144
   7        3PX         0.04100   0.32874   0.13832  -0.30269  -0.20838
   8        3PY        -0.07254  -0.06267   1.03144  -0.14356  -0.06405
   9        3PZ         0.05490   0.16429   0.19602  -0.54285   0.43115
  10 2   C  1S          0.02430   0.06014   0.05777   0.07649   0.05903
  11        2S         -0.05753  -0.09343  -0.07595  -0.12593  -0.08759
  12        2PX        -0.24863   0.10572  -0.13889   0.19488  -0.06772
  13        2PY        -0.01555   0.32926  -0.08379  -0.09538  -0.10837
  14        2PZ        -0.12265   0.13126  -0.13024  -0.04126   0.25373
  15        3S         -0.13048  -0.58030  -0.83974  -1.38585  -0.98305
  16        3PX        -0.13357   0.38565  -0.28752   0.67328  -0.29032
  17        3PY         0.00414   0.88073  -0.10268  -0.54174  -0.45926
  18        3PZ        -0.08318   0.39605  -0.26651  -0.14315   0.81096
  19 3   C  1S          0.00117   0.00040   0.00075   0.02079  -0.00086
  20        2S         -0.00471  -0.00589  -0.00431  -0.02950  -0.00018
  21        2PX        -0.13502  -0.01533  -0.01539  -0.01152  -0.02827
  22        2PY         0.32750  -0.02160  -0.01139  -0.00512  -0.03061
  23        2PZ        -0.12101   0.00240   0.01144   0.04071   0.10665
  24        3S          0.00551  -0.05505  -0.06672  -0.21580   0.00103
  25        3PX        -0.09039  -0.05994  -0.04536  -0.12261  -0.16309
  26        3PY         0.20947   0.01906  -0.07874  -0.00193  -0.05739
  27        3PZ        -0.07228  -0.00622   0.05203   0.24753   0.26633
  28 4   O  1S          0.00100  -0.07389  -0.05054   0.02328   0.00472
  29        2S         -0.01772   0.13527   0.09921  -0.04982  -0.01244
  30        2PX         0.08653  -0.08063   0.24382  -0.07931   0.00678
  31        2PY         0.16251   0.31993   0.04683  -0.02670   0.01336
  32        2PZ         0.05831   0.02906   0.17471  -0.01709  -0.06773
  33        3S          0.06341   1.01300   0.66970  -0.38496  -0.07387
  34        3PX         0.07619  -0.08574   0.41451  -0.17818   0.02904
  35        3PY         0.14767   0.62321   0.14424  -0.12840   0.02795
  36        3PZ         0.05491   0.08549   0.29327  -0.03398  -0.18636
  37 5   H  1S          0.08537   0.00679   0.01854   0.02294  -0.07751
  38        2S          0.06875   0.08127   0.25236   0.87852  -1.04140
  39 6   H  1S          0.04883   0.01830   0.00157   0.05773  -0.02621
  40        2S          0.05455   0.20282   0.39739   1.58112  -0.40674
  41 7   H  1S          0.02476   0.01221  -0.00339   0.02211   0.07339
  42        2S          0.02807   0.16589   0.20711   0.66940   1.79126
  43 8   H  1S         -0.24043  -0.00141   0.08141   0.00903   0.00004
  44        2S         -0.14313   0.00317   0.21514   0.15329  -0.04704
  45 9   H  1S          0.07849  -0.02808  -0.10394   0.03194  -0.00100
  46        2S          0.04483  -0.00497  -0.21993   0.18039  -0.02722
  47 10  H  1S          0.13431   0.02283   0.01752  -0.03958  -0.00216
  48        2S          0.09746   0.08585   0.13227   0.18577   0.43587
                          21        22        23        24        25
                           V         V         V         V         V
     Eigenvalues --     0.08542   0.11605   0.14049   0.16432   0.20345
   1 1   C  1S         -0.10330   0.03895  -0.06188  -0.00641  -0.09813
   2        2S          0.15332  -0.05455   0.03356  -0.00159   0.13521
   3        2PX        -0.07114  -0.08262  -0.10326  -0.00506   0.00052
   4        2PY        -0.03118   0.03395   0.01688  -0.01852   0.03608
   5        2PZ         0.07515  -0.11675  -0.09438   0.00670  -0.32525
   6        3S          1.98463  -0.54949   1.45510   0.03594   2.42019
   7        3PX        -0.55812  -0.85957  -0.27235   0.08394   0.23180
   8        3PY         0.05395   0.22750   0.38303  -0.61715   0.48022
   9        3PZ         0.45917  -0.55517  -0.31232  -0.01660  -2.00000
  10 2   C  1S          0.07530   0.02663   0.05526  -0.00406   0.04633
  11        2S         -0.05493  -0.02093  -0.07477  -0.03671   0.02639
  12        2PX         0.10783  -0.08111  -0.11265  -0.04723  -0.02099
  13        2PY         0.06301   0.02117   0.04860  -0.00793   0.05672
  14        2PZ        -0.15564   0.09150   0.00342   0.02844   0.11243
  15        3S         -1.47365  -0.76555  -0.97448   0.34706  -1.29297
  16        3PX        -0.01231  -0.66653  -0.87563   0.17202  -1.40974
  17        3PY         0.45956   0.18276   0.54830  -0.01975   0.62412
  18        3PZ        -0.96139   0.46432  -0.04868   0.15014   0.25689
  19 3   C  1S         -0.04113  -0.12068   0.07823   0.00971   0.06130
  20        2S          0.04186   0.10487  -0.06817  -0.00662   0.03950
  21        2PX         0.10880  -0.05419  -0.11577  -0.03395   0.18401
  22        2PY         0.02189   0.00909  -0.01999   0.31306   0.02956
  23        2PZ        -0.07366  -0.09140  -0.19976   0.00694   0.04439
  24        3S          0.97350   2.18625  -1.45305  -0.18222  -1.58392
  25        3PX         0.41229  -0.14116  -0.44652  -0.15569   1.74300
  26        3PY         0.06461   0.01289  -0.13561   1.60672   0.11672
  27        3PZ        -0.34517  -0.22450  -0.88825   0.01588   0.38399
  28 4   O  1S         -0.00130  -0.00534   0.00071   0.00591   0.00660
  29        2S          0.00869   0.01944  -0.02856   0.01593  -0.00071
  30        2PX        -0.07185   0.02201  -0.09012   0.00890  -0.08361
  31        2PY         0.02206   0.02522   0.04444   0.02496  -0.00760
  32        2PZ        -0.03697  -0.05413  -0.01519  -0.05703  -0.02059
  33        3S          0.03124   0.00283   0.17722  -0.23922  -0.09009
  34        3PX        -0.21783  -0.03746  -0.15309  -0.10433  -0.36069
  35        3PY         0.11114   0.07029   0.14075  -0.02800   0.08190
  36        3PZ        -0.06665  -0.08886  -0.05715  -0.07666  -0.05329
  37 5   H  1S         -0.00145   0.03896   0.00871   0.00605   0.02570
  38        2S         -1.27115   0.98924  -0.02678  -0.13769   1.22970
  39 6   H  1S          0.00494  -0.05364  -0.03772   0.02993  -0.00388
  40        2S          1.28289  -0.70106  -0.36426  -0.11484  -0.77236
  41 7   H  1S         -0.00280   0.06212  -0.03398  -0.01733  -0.08196
  42        2S         -0.49107   0.74872   0.18234   0.04965   0.44363
  43 8   H  1S          0.00798   0.01235   0.04023   0.09488  -0.03432
  44        2S         -0.41955  -0.56298   0.94008   1.86334  -0.32329
  45 9   H  1S         -0.00245   0.01238   0.06016  -0.06756  -0.03625
  46        2S         -0.47399  -0.51698   1.50887  -1.30304  -0.71703
  47 10  H  1S         -0.01813  -0.05799  -0.08317  -0.02472   0.01044
  48        2S         -0.69147  -1.34398  -0.68704  -0.34878   0.93669
                          26        27        28        29        30
                           V         V         V         V         V
     Eigenvalues --     0.25689   0.45095   0.52006   0.52840   0.56591
   1 1   C  1S          0.00381   0.04156  -0.02294   0.00533   0.02472
   2        2S          0.02815   0.01789   0.12959   0.03936  -0.33156
   3        2PX         0.36426  -0.40864  -0.15981  -0.33862   0.33499
   4        2PY        -0.00218   0.05894  -0.22835  -0.00098   0.71270
   5        2PZ         0.01372  -0.00977  -0.04667   0.12150   0.35126
   6        3S         -0.44136  -0.11797  -0.56907  -0.72461   0.97774
   7        3PX         2.65626   0.91822  -0.01129   0.97207  -0.78395
   8        3PY        -0.25789  -0.18519  -0.00538   0.16298  -0.83897
   9        3PZ         0.17944   0.30933   0.06032   0.06346  -0.56142
  10 2   C  1S         -0.03886  -0.01005   0.00063   0.01976  -0.00538
  11        2S          0.03335   0.34758  -0.02184  -0.23249   0.09631
  12        2PX         0.05354   0.38806  -0.56217   0.11658   0.05562
  13        2PY        -0.19267  -0.66288  -0.42016   0.53194  -0.24185
  14        2PZ         0.06107   0.15724  -0.11333   0.52035   0.15680
  15        3S          1.40304  -0.01194   0.03639   0.84230  -0.42836
  16        3PX         1.07141  -0.49836   0.78797   0.26341  -0.18556
  17        3PY        -1.26784   1.00119   0.57511  -0.84996   0.82308
  18        3PZ         1.04849  -0.22152  -0.22799  -0.73199  -0.42291
  19 3   C  1S          0.03156  -0.02003  -0.00044  -0.00554  -0.00060
  20        2S          0.00829   0.03623  -0.14828  -0.08820   0.00846
  21        2PX         0.14351   0.00936   0.38573   0.34490   0.04397
  22        2PY        -0.01164   0.07408  -0.27789   0.08389   0.04847
  23        2PZ        -0.23074  -0.20461   0.10034  -0.16978   0.28423
  24        3S         -1.03542  -0.22229   0.44991  -0.09996   0.12379
  25        3PX         1.06918  -0.22539  -0.51823  -0.43656  -0.04989
  26        3PY         0.23765  -0.01551   0.48682  -0.15376  -0.08517
  27        3PZ        -1.46009   0.13110  -0.15449  -0.05840  -0.42404
  28 4   O  1S         -0.00400   0.00740   0.01495  -0.01037  -0.00473
  29        2S          0.01683  -0.11247  -0.13296   0.07636   0.05103
  30        2PX         0.05689  -0.02129  -0.15042  -0.09878   0.01270
  31        2PY        -0.03947  -0.19474  -0.20618   0.12407   0.14191
  32        2PZ         0.04306  -0.04002   0.04294   0.22434   0.18548
  33        3S          0.07703   0.82106   0.32767  -0.13776  -0.30813
  34        3PX         0.25044   0.07372  -0.03973   0.15837  -0.14034
  35        3PY        -0.13194   0.20725   0.09926  -0.08855  -0.00273
  36        3PZ         0.19678   0.12809  -0.01086   0.06826  -0.14043
  37 5   H  1S          0.02229  -0.05643   0.16429   0.16965   0.21884
  38        2S         -0.07324  -0.02645  -0.00501   0.03322  -0.04033
  39 6   H  1S          0.08674  -0.12577   0.20108   0.30768   0.03345
  40        2S          0.09445   0.02199   0.15479   0.12478  -0.00183
  41 7   H  1S          0.06626  -0.17886  -0.24391  -0.14238  -0.20037
  42        2S          1.03207  -0.06858  -0.20130  -0.11254  -0.23327
  43 8   H  1S         -0.03447  -0.08052   0.26803   0.06227  -0.04685
  44        2S         -0.10167   0.08063  -0.05773  -0.05866  -0.09990
  45 9   H  1S         -0.04354  -0.00560  -0.02351   0.09559   0.20168
  46        2S          0.19245   0.00097  -0.14275   0.04026   0.12364
  47 10  H  1S         -0.03826   0.20897  -0.21028   0.00099  -0.22645
  48        2S         -1.22675  -0.14182  -0.07416  -0.24883  -0.05825
                          31        32        33        34        35
                           V         V         V         V         V
     Eigenvalues --     0.60664   0.63222   0.65223   0.75274   0.79669
   1 1   C  1S          0.00797   0.06210  -0.03023   0.02838   0.00509
   2        2S         -0.00114  -0.30927  -0.50925  -0.11772   0.42823
   3        2PX        -0.03605   0.31098   0.29558  -0.62223   0.55921
   4        2PY         0.29430  -0.66453   0.05109   0.18462   0.14441
   5        2PZ         0.12322   0.11770  -0.18539  -0.33778  -0.51950
   6        3S          0.42215   0.70055   0.68037  -0.16286  -1.10972
   7        3PX        -0.29694  -0.32522  -0.23359   2.46325  -1.17230
   8        3PY        -0.89273   0.83638  -0.42196  -0.50109  -0.13680
   9        3PZ        -0.49794  -0.08360   0.68933   1.43956   1.63762
  10 2   C  1S          0.00305  -0.05978  -0.02905   0.02386   0.00831
  11        2S          0.01573   0.07220  -0.67248  -0.15257   0.52969
  12        2PX         0.00128   0.50770   0.08055   0.18852   0.24770
  13        2PY         0.06882  -0.07348   0.04029   0.14090   0.00259
  14        2PZ         0.20827   0.33738  -0.02834  -0.13464   0.24773
  15        3S         -0.02770  -0.06592   1.59215   1.71299  -0.96230
  16        3PX         0.22526  -0.72448  -0.23885   0.14560  -0.18389
  17        3PY         0.16583   0.13493   0.01925  -0.67367   0.21770
  18        3PZ        -0.56478  -0.57523  -0.03578   0.68559  -0.69716
  19 3   C  1S         -0.00378  -0.01119   0.01825  -0.02327   0.04437
  20        2S          0.13112   0.13125  -0.26398   0.12846  -0.06653
  21        2PX        -0.30639  -0.21496   0.58353   0.01411   0.44664
  22        2PY        -0.66777  -0.11410  -0.12417  -0.23650  -0.07461
  23        2PZ        -0.21808   0.31104  -0.14506   0.69734   0.01749
  24        3S         -0.20316  -0.12176   0.38970  -0.73005   0.67925
  25        3PX         0.45794   0.13808  -0.68706  -0.18040  -1.62015
  26        3PY         1.43555   0.20896   0.38394   0.69077   0.17918
  27        3PZ         0.68045  -0.57643  -0.01135  -2.17386  -0.03068
  28 4   O  1S         -0.00836   0.00440   0.03549  -0.00440  -0.03361
  29        2S          0.16828  -0.04084  -0.26274  -0.00595   0.24859
  30        2PX         0.24503   0.14899   0.17009  -0.00788  -0.11559
  31        2PY         0.07741  -0.12680   0.27017   0.08065  -0.22200
  32        2PZ        -0.15697   0.12836  -0.01908  -0.16989  -0.22057
  33        3S         -0.57892   0.07568  -0.22912   0.45388   0.24657
  34        3PX        -0.43172   0.02464  -0.14183   0.21457   0.35030
  35        3PY        -0.07372  -0.01008  -0.37247   0.01595   0.46755
  36        3PZ         0.13861  -0.03014  -0.08641   0.23645   0.25349
  37 5   H  1S          0.05190   0.21266  -0.39751  -0.06971   0.17408
  38        2S          0.07061   0.01557  -0.44503  -0.64430  -0.78476
  39 6   H  1S          0.12079  -0.20152  -0.42650   0.01483   0.07987
  40        2S          0.21850  -0.06757  -0.27611  -0.27590   0.26644
  41 7   H  1S         -0.06792  -0.29259  -0.28157   0.20677   0.24679
  42        2S         -0.31378  -0.18968  -0.25075   0.17582  -0.30833
  43 8   H  1S          0.25907   0.12006   0.06603   0.06540   0.26857
  44        2S          0.18803   0.18555   0.13103   0.35155   0.48003
  45 9   H  1S         -0.36996  -0.02747  -0.07394   0.00771   0.18156
  46        2S         -0.26650  -0.00100  -0.00601   0.23069   0.34889
  47 10  H  1S          0.10723  -0.18019   0.04319  -0.26069   0.15697
  48        2S          0.14895  -0.16360  -0.16092  -0.86807  -0.03548
                          36        37        38        39        40
                           V         V         V         V         V
     Eigenvalues --     0.82165   0.89023   0.92254   0.95401   0.99295
   1 1   C  1S          0.01203  -0.02296  -0.00097  -0.02986  -0.00008
   2        2S         -0.30094   0.30208   0.01708  -0.28418   0.46890
   3        2PX         0.02375  -0.02682  -0.16396   0.13184   0.03550
   4        2PY         0.04379  -0.14145   0.23983   0.02772   0.05576
   5        2PZ        -0.55252   0.64728  -0.10573   0.28605   0.13684
   6        3S          0.47415  -0.69028  -0.39575   0.24859  -1.61967
   7        3PX        -0.78376   0.48937   0.87750  -0.71393   0.33395
   8        3PY        -0.28399   0.67545  -0.59692  -0.04242  -0.62589
   9        3PZ         2.35474  -1.46050   0.47468   0.34130   0.00738
  10 2   C  1S          0.00379  -0.00494  -0.05363  -0.00916  -0.00936
  11        2S         -0.11893   0.12955   0.39320  -0.02262  -1.37434
  12        2PX        -0.54298  -0.21683  -0.35898   0.16199   0.06909
  13        2PY        -0.16093  -0.04064   0.51210   0.12041  -0.16709
  14        2PZ         0.77255   0.45051  -0.08749  -0.02390   0.10456
  15        3S          0.30006  -0.42394  -0.54119  -0.22065   2.98663
  16        3PX         1.57056   0.15241   0.76600  -0.50160   0.25162
  17        3PY         0.32346   0.13560  -0.54740  -0.05206   0.18721
  18        3PZ        -2.34856  -0.70618   0.45214  -0.26277   0.26765
  19 3   C  1S         -0.01620   0.00484  -0.00589  -0.03195   0.01504
  20        2S         -0.07600  -0.12395   0.05154  -0.23607  -0.24651
  21        2PX        -0.29180   0.15048  -0.03274  -0.03118  -0.01722
  22        2PY         0.12990   0.14169  -0.04602  -0.19668  -0.31718
  23        2PZ         0.10446   0.15323  -0.08744   0.07510   0.12625
  24        3S          1.34658  -0.35163  -0.21721   1.20390   0.56407
  25        3PX         0.02831   0.15523   0.08038  -0.01200  -0.15504
  26        3PY        -0.40217  -0.47459   0.15281   0.60818   0.49098
  27        3PZ        -0.27999  -0.34429  -0.25311  -0.07398  -0.18795
  28 4   O  1S          0.00649  -0.00817  -0.02029  -0.01828  -0.01257
  29        2S         -0.06437   0.00921   0.12086   0.17782   0.16170
  30        2PX        -0.07714   0.07581   0.12583  -0.59937   0.24373
  31        2PY         0.04497   0.00085  -0.43637  -0.22629  -0.42008
  32        2PZ         0.11964  -0.51036   0.02173   0.06738   0.22485
  33        3S          0.06351   0.18861   0.08469  -0.27327  -0.31552
  34        3PX         0.11022  -0.15306  -0.15243   0.93717  -0.24501
  35        3PY        -0.10369   0.00865   0.77758   0.37167   0.52781
  36        3PZ        -0.14584   0.98697  -0.01458  -0.17890  -0.31441
  37 5   H  1S         -0.13351  -0.41079   0.07388  -0.74197  -0.16069
  38        2S         -1.31624   1.52422  -0.40491   0.32247   0.41807
  39 6   H  1S         -0.21009  -0.38977  -0.72999   0.13482   0.05831
  40        2S          1.64042   0.77341   0.97925  -0.25872  -0.72195
  41 7   H  1S          0.23236   0.30601  -0.57862  -0.17889   0.35327
  42        2S         -1.55492  -0.68340   0.96243   0.05938  -0.91471
  43 8   H  1S         -0.14414   0.00042  -0.11158  -0.16441  -0.27250
  44        2S         -0.30032  -0.23835   0.11150   0.19589   0.46745
  45 9   H  1S         -0.14472   0.05068   0.14989  -0.35614   0.36489
  46        2S          0.12321   0.20592  -0.12730  -0.24785  -0.46471
  47 10  H  1S          0.00232  -0.08095  -0.15632  -0.07121   0.24345
  48        2S         -0.30191  -0.13105  -0.07691  -0.38696  -0.44884
                          41        42        43        44        45
                           V         V         V         V         V
     Eigenvalues --     1.01477   1.05739   1.06255   1.07684   1.12556
   1 1   C  1S         -0.01350  -0.00026   0.00440  -0.00271  -0.00272
   2        2S         -1.11244   0.03139   0.16812  -0.14859   0.55587
   3        2PX         0.03575   0.03599  -0.06108  -0.09658   0.08889
   4        2PY        -0.01856   0.12604   0.10526   0.00169  -0.01140
   5        2PZ        -0.15640  -0.00637   0.06243   0.01680  -0.13272
   6        3S          1.73421  -0.49486  -0.56467  -0.14653  -0.82276
   7        3PX        -0.22093   0.02226   0.59283   0.31500  -0.13990
   8        3PY         0.24558  -0.42341  -0.47879   0.05937  -0.15938
   9        3PZ         0.08578   0.22269  -0.12582   0.12390   1.83447
  10 2   C  1S         -0.01478  -0.01649  -0.00388  -0.00707   0.00933
  11        2S         -0.82343  -0.55839  -0.29686   0.12831   0.14922
  12        2PX         0.06233   0.00680   0.13083  -0.02525   0.05061
  13        2PY        -0.04129   0.05556  -0.07929   0.06932  -0.00699
  14        2PZ        -0.05539  -0.08102   0.05089  -0.05317  -0.00719
  15        3S          1.01888   1.00545   1.17322  -0.03299   0.13649
  16        3PX        -0.16726   0.45532  -0.35693   0.10267   0.93540
  17        3PY         0.10322   0.09547   0.01676  -0.27808   0.22057
  18        3PZ        -0.48581  -0.05903   0.75674   0.12983  -1.13716
  19 3   C  1S         -0.01954  -0.00101   0.00061   0.04679   0.01899
  20        2S         -0.27056  -0.08640  -0.07430  -1.53593   0.51860
  21        2PX        -0.15087   0.03322  -0.15983  -0.45055  -0.26549
  22        2PY         0.09848   0.71346   0.27949  -0.02712   0.13409
  23        2PZ        -0.37239   0.39100  -0.45180   0.14520  -0.11504
  24        3S          0.42357   0.38842  -0.13213   2.88075  -0.29543
  25        3PX         0.57534  -0.09236   0.15237   0.65143  -0.37948
  26        3PY        -0.46785  -1.00085   0.15319   0.04795  -0.47222
  27        3PZ         0.58270  -0.48787   0.43672  -0.29357  -0.47887
  28 4   O  1S         -0.01574  -0.00193  -0.00006   0.00359   0.00031
  29        2S          0.20481  -0.00411  -0.00573  -0.06944  -0.08695
  30        2PX        -0.06993   0.16869  -0.06010  -0.11345   0.23891
  31        2PY        -0.18359  -0.25692  -0.09403   0.08995   0.02512
  32        2PZ        -0.47447  -0.07849   0.21509  -0.02788  -0.04237
  33        3S         -0.55904  -0.09520   0.03619   0.11939   0.51927
  34        3PX         0.07456  -0.31218   0.16761   0.23098  -0.24662
  35        3PY         0.13804   0.39037   0.19110  -0.13593   0.04976
  36        3PZ         0.71784   0.15085  -0.39560   0.07469   0.13044
  37 5   H  1S          0.35173   0.02393  -0.05956  -0.02692  -0.81038
  38        2S         -0.84414  -0.11475   0.13151  -0.01470  -0.14558
  39 6   H  1S          0.33303   0.24416  -0.35374  -0.05647   0.60204
  40        2S         -0.50884  -0.25067  -0.34778   0.09564   0.29498
  41 7   H  1S         -0.12606  -0.28658   0.51360  -0.18510  -0.53326
  42        2S         -0.46579  -0.00498  -0.35961   0.40607  -0.18100
  43 8   H  1S         -0.16382   0.47962   0.80943   0.55655   0.23487
  44        2S         -0.49994  -1.03195  -0.81557  -1.13530  -0.13160
  45 9   H  1S          0.20475  -0.79903  -0.06672   0.52378   0.50021
  46        2S         -0.51895   1.38043  -0.16877  -1.10869   0.18844
  47 10  H  1S         -0.42341   0.35427  -0.76612   0.46606  -0.35731
  48        2S          0.68340  -0.61212   1.06799  -1.05921   0.29558
                          46        47        48
                           V         V         V
     Eigenvalues --     1.33588   1.52387   1.68177
   1 1   C  1S          0.02976  -0.14228   0.02950
   2        2S          0.59055  -2.10657   0.06809
   3        2PX        -0.00639  -0.07358   0.21589
   4        2PY         0.01938  -0.07761   0.27387
   5        2PZ        -0.00191   0.22619   0.12788
   6        3S         -2.22219   8.03924  -1.47347
   7        3PX         2.14404   0.25311   0.56509
   8        3PY        -0.17981   0.42432   0.40089
   9        3PZ         0.09617  -2.67894   0.49761
  10 2   C  1S         -0.07837   0.05172   0.01869
  11        2S         -1.23937   0.60297  -0.10090
  12        2PX        -0.12515  -0.16983   0.05029
  13        2PY        -0.02561   0.03718   0.37374
  14        2PZ        -0.01328  -0.02497   0.11213
  15        3S          4.63562  -3.98189  -0.80428
  16        3PX         0.91025  -1.30463   0.05203
  17        3PY        -1.18307   0.60184   0.45865
  18        3PZ         0.45178   0.27425   0.10145
  19 3   C  1S          0.07034   0.11328   0.00186
  20        2S          1.39852   1.32674   0.22386
  21        2PX        -0.23164   0.09868  -0.12104
  22        2PY        -0.00334  -0.00743  -0.11558
  23        2PZ         0.05946   0.01577  -0.01960
  24        3S         -3.58108  -5.73919  -0.22664
  25        3PX         0.52566   1.66886  -0.03496
  26        3PY         0.06683   0.21164   0.16744
  27        3PZ        -0.31665  -0.08381  -0.03842
  28 4   O  1S         -0.00167   0.00523   0.02714
  29        2S          0.17040   0.11882  -1.82042
  30        2PX        -0.41470   0.07983  -0.14297
  31        2PY         0.16400  -0.19367  -0.29228
  32        2PZ        -0.14428   0.10129  -0.13997
  33        3S         -0.53759  -0.88042   3.59453
  34        3PX         1.08779  -0.99711   0.63267
  35        3PY        -0.69143   0.42306   1.33305
  36        3PZ         0.47074  -0.44704   0.62570
  37 5   H  1S          0.22075  -0.29823   0.16679
  38        2S          0.21259   0.22829  -0.01643
  39 6   H  1S         -0.41154   0.09424   0.13877
  40        2S         -0.19315  -0.00715   0.04064
  41 7   H  1S         -0.32165   0.40469   0.14297
  42        2S         -0.15618   0.40845   0.01026
  43 8   H  1S          0.35607   0.47263  -0.02903
  44        2S          0.36817   0.31772   0.27681
  45 9   H  1S          0.30151   0.37804   0.08064
  46        2S          0.46172   0.22620  -0.14914
  47 10  H  1S          0.37680   0.54605   0.02758
  48        2S          0.30233   0.62916   0.03896
     Beta Molecular Orbital Coefficients:
                           1         2         3         4         5
                           O         O         O         O         O
     Eigenvalues --   -20.98251 -11.57753 -11.57425 -11.42086  -1.74120
   1 1   C  1S          0.00001   0.12172   0.98882  -0.00211  -0.08284
   2        2S         -0.00006   0.00245   0.02612  -0.00045   0.17338
   3        2PX        -0.00034  -0.00003  -0.00182  -0.00019  -0.09801
   4        2PY        -0.00042  -0.00030  -0.00071  -0.00001  -0.03208
   5        2PZ        -0.00022  -0.00007  -0.00123   0.00014  -0.06457
   6        3S          0.00338   0.00342  -0.02147   0.00345   0.02170
   7        3PX        -0.00119  -0.00269   0.00241   0.00283   0.02188
   8        3PY        -0.00121   0.00097  -0.00100   0.00010   0.01574
   9        3PZ        -0.00130  -0.00071   0.00421  -0.00088   0.02294
  10 2   C  1S          0.00003   0.98865  -0.12194   0.00004  -0.08382
  11        2S          0.00009   0.02519  -0.00399  -0.00047   0.17283
  12        2PX        -0.00006   0.00037  -0.00018  -0.00015   0.04775
  13        2PY        -0.00060  -0.00199   0.00029   0.00004  -0.11374
  14        2PZ        -0.00017  -0.00013  -0.00006   0.00002   0.00353
  15        3S          0.00259  -0.01540   0.01017   0.00134   0.03697
  16        3PX        -0.00012  -0.00132   0.00350   0.00061  -0.00240
  17        3PY        -0.00156   0.00153  -0.00200  -0.00047   0.02607
  18        3PZ        -0.00025  -0.00064   0.00060   0.00013   0.00326
  19 3   C  1S          0.00000   0.00013   0.00192   0.99621  -0.01060
  20        2S         -0.00013  -0.00042  -0.00058   0.02595   0.02181
  21        2PX         0.00017   0.00019  -0.00003  -0.00073  -0.01907
  22        2PY         0.00010  -0.00002   0.00004  -0.00004  -0.00371
  23        2PZ         0.00000  -0.00001   0.00012   0.00022   0.00308
  24        3S         -0.00036   0.00119   0.00521  -0.01854   0.01139
  25        3PX         0.00019  -0.00075  -0.00318   0.00123  -0.00059
  26        3PY        -0.00004  -0.00001  -0.00023   0.00013   0.00121
  27        3PZ         0.00017   0.00022  -0.00045  -0.00061  -0.00408
  28 4   O  1S          0.99622  -0.00005  -0.00005   0.00000  -0.18035
  29        2S          0.02127   0.00028   0.00010  -0.00020   0.39402
  30        2PX         0.00069   0.00009  -0.00006  -0.00011   0.04675
  31        2PY         0.00212   0.00005   0.00011  -0.00002   0.13430
  32        2PZ         0.00088   0.00006  -0.00002  -0.00004   0.05780
  33        3S         -0.01096   0.00038   0.00125   0.00013   0.43764
  34        3PX        -0.00136  -0.00097   0.00123   0.00030   0.03324
  35        3PY        -0.00352  -0.00047  -0.00106  -0.00005   0.09284
  36        3PZ        -0.00154  -0.00070   0.00031   0.00015   0.04005
  37 5   H  1S         -0.00021  -0.00024   0.00001  -0.00010   0.02313
  38        2S          0.00001   0.00038   0.00171   0.00025  -0.00642
  39 6   H  1S         -0.00023  -0.00005  -0.00022  -0.00002   0.02349
  40        2S         -0.00020   0.00262   0.00007   0.00020  -0.00309
  41 7   H  1S         -0.00020  -0.00003  -0.00037  -0.00009   0.02319
  42        2S         -0.00009   0.00245  -0.00059  -0.00006  -0.00425
  43 8   H  1S          0.00005  -0.00003  -0.00019   0.00011   0.00211
  44        2S         -0.00025   0.00019   0.00032   0.00306   0.00108
  45 9   H  1S         -0.00005  -0.00005  -0.00012   0.00009   0.00224
  46        2S          0.00027   0.00003   0.00062   0.00307  -0.00699
  47 10  H  1S          0.00000  -0.00014  -0.00032   0.00008   0.00360
  48        2S          0.00007   0.00005  -0.00076   0.00304  -0.00039
                           6         7         8         9        10
                           O         O         O         O         O
     Eigenvalues --    -1.25153  -1.19379  -1.08604  -0.96632  -0.91522
   1 1   C  1S          0.13707   0.02454  -0.09313  -0.02260  -0.02880
   2        2S         -0.28010  -0.04131   0.19342   0.03254   0.03740
   3        2PX        -0.06335  -0.11824  -0.16641   0.09040   0.11016
   4        2PY        -0.05010   0.12187  -0.05889  -0.05407  -0.04075
   5        2PZ         0.01737   0.01387   0.09047   0.29633  -0.06946
   6        3S         -0.28193  -0.10405   0.28741   0.10826   0.20898
   7        3PX         0.03211  -0.00040  -0.07412  -0.02717   0.02183
   8        3PY        -0.01031   0.01041  -0.00145  -0.05206  -0.01165
   9        3PZ         0.03503   0.01526   0.02755   0.12638  -0.07949
  10 2   C  1S          0.04598  -0.16452   0.04274  -0.01850  -0.02517
  11        2S         -0.10098   0.33792  -0.07403   0.01906   0.04396
  12        2PX        -0.08320  -0.02041   0.11438  -0.25260   0.04718
  13        2PY        -0.04393   0.01187  -0.03701   0.11944   0.29922
  14        2PZ        -0.04379   0.00702   0.13601   0.14968  -0.23017
  15        3S         -0.04868   0.39359  -0.19036   0.10600   0.07060
  16        3PX        -0.00238   0.01724   0.00071  -0.10114   0.02780
  17        3PY        -0.00636  -0.02001   0.01562  -0.00447   0.09832
  18        3PZ        -0.00118   0.01290   0.03741   0.07987  -0.14732
  19 3   C  1S          0.12611   0.07514   0.11951  -0.00193   0.04603
  20        2S         -0.23950  -0.14298  -0.22330  -0.00132  -0.07895
  21        2PX         0.05951   0.01572  -0.04667   0.03652  -0.12167
  22        2PY        -0.00093   0.01831  -0.01376  -0.01616  -0.02270
  23        2PZ        -0.02686  -0.01089   0.03279   0.07237   0.01916
  24        3S         -0.21774  -0.13706  -0.27300   0.04164  -0.19197
  25        3PX         0.00251   0.00655   0.01287  -0.00673  -0.00581
  26        3PY         0.00147   0.00669   0.00035   0.00331  -0.01261
  27        3PZ        -0.01917  -0.00135   0.01366   0.02598  -0.00272
  28 4   O  1S         -0.10040   0.07771   0.04302  -0.03384  -0.01881
  29        2S          0.22524  -0.17722  -0.10158   0.09009   0.05575
  30        2PX        -0.09030  -0.11131   0.21055  -0.12958   0.18647
  31        2PY        -0.04687   0.17521   0.02731  -0.25135  -0.29755
  32        2PZ        -0.05295  -0.01976   0.16988  -0.04431  -0.03266
  33        3S          0.34887  -0.26986  -0.14411   0.06878   0.01446
  34        3PX        -0.02695  -0.05051   0.10395  -0.08020   0.10461
  35        3PY         0.00299   0.06176   0.01481  -0.16163  -0.20152
  36        3PZ        -0.00967  -0.01376   0.08400  -0.03818  -0.02193
  37 5   H  1S         -0.08449  -0.02046   0.11311   0.16455  -0.00354
  38        2S         -0.01709  -0.00648   0.02164   0.04634   0.01015
  39 6   H  1S         -0.02525   0.13097  -0.04153   0.17168  -0.02220
  40        2S         -0.00202   0.02555  -0.01796   0.06706   0.00901
  41 7   H  1S         -0.03175   0.12045  -0.08511  -0.01908   0.21640
  42        2S         -0.00463   0.02082  -0.02398   0.00801   0.08329
  43 8   H  1S         -0.06412  -0.04994  -0.08689   0.02093  -0.05856
  44        2S          0.00377  -0.00740  -0.01657   0.01334  -0.02262
  45 9   H  1S         -0.06815  -0.04142  -0.09204   0.01894  -0.07385
  46        2S          0.00060  -0.00504  -0.02636   0.00874  -0.02309
  47 10  H  1S         -0.06956  -0.04196  -0.09956  -0.03974  -0.04060
  48        2S         -0.01264  -0.00551  -0.01857  -0.02201  -0.00878
                          11        12        13        14        15
                           O         O         O         O         O
     Eigenvalues --    -0.86959  -0.79614  -0.76495  -0.73146  -0.70062
   1 1   C  1S          0.05002  -0.01448   0.03722   0.00832   0.00228
   2        2S         -0.10768   0.01930  -0.07420  -0.00966  -0.00407
   3        2PX        -0.14777  -0.05143  -0.30139   0.06275   0.12368
   4        2PY        -0.12701   0.26992   0.00735   0.00534  -0.20752
   5        2PZ        -0.16417  -0.10684   0.21593  -0.15096   0.05545
   6        3S         -0.15118   0.10775  -0.17493  -0.03265  -0.02650
   7        3PX        -0.04472  -0.02601  -0.22242   0.10426   0.04849
   8        3PY        -0.02504   0.12453  -0.01512   0.02935  -0.08599
   9        3PZ        -0.09293  -0.12599   0.22270  -0.08066   0.04627
  10 2   C  1S         -0.02114  -0.00018  -0.00680  -0.00517   0.02159
  11        2S          0.05195  -0.00211   0.01944   0.02353  -0.04699
  12        2PX        -0.15380   0.14834   0.17372  -0.02932  -0.25674
  13        2PY         0.10878   0.04476   0.08159   0.01118  -0.03523
  14        2PZ         0.18578   0.25300  -0.11310   0.02158  -0.14337
  15        3S          0.01628   0.01039   0.01670   0.00909  -0.12573
  16        3PX        -0.10107   0.05042   0.12072  -0.04300  -0.14461
  17        3PY         0.04208  -0.01221   0.05797   0.02241  -0.00194
  18        3PZ         0.11532   0.14727  -0.12093   0.03694  -0.09262
  19 3   C  1S         -0.02556   0.00501  -0.01349  -0.00281   0.00009
  20        2S          0.04842  -0.00559   0.01304   0.01259  -0.00237
  21        2PX         0.08042  -0.10393   0.30951   0.08855  -0.12943
  22        2PY        -0.05462   0.24731   0.15485   0.13248   0.32118
  23        2PZ        -0.13012  -0.07320  -0.05685   0.39740  -0.08483
  24        3S          0.07549  -0.06835   0.19427  -0.04061   0.00941
  25        3PX         0.01702  -0.02635   0.05678   0.08813  -0.08394
  26        3PY        -0.02798   0.12961   0.08651   0.08633   0.21106
  27        3PZ        -0.04147  -0.03023   0.01065   0.20656  -0.05213
  28 4   O  1S          0.00617  -0.02249  -0.00927  -0.00623   0.00696
  29        2S         -0.01784   0.07086   0.02348   0.00683  -0.03459
  30        2PX         0.32656  -0.06998   0.07205   0.12287   0.08345
  31        2PY        -0.09489  -0.24838  -0.08817   0.02167   0.16960
  32        2PZ         0.20980  -0.09375   0.07079   0.06056   0.10539
  33        3S         -0.00286   0.01379   0.04117   0.08016   0.04222
  34        3PX         0.22158  -0.06441   0.05723   0.10078   0.07701
  35        3PY        -0.05659  -0.20170  -0.06574   0.03125   0.16007
  36        3PZ         0.14115  -0.07808   0.04919   0.06012   0.09554
  37 5   H  1S         -0.13538  -0.08013   0.08316  -0.11582   0.06635
  38        2S         -0.04987  -0.02156   0.00902  -0.07799   0.05124
  39 6   H  1S          0.17636   0.03413  -0.11414   0.03944   0.04214
  40        2S          0.08206   0.00998  -0.05806   0.01181   0.04545
  41 7   H  1S         -0.02836  -0.10622   0.11726  -0.00893   0.03244
  42        2S          0.00578  -0.04900   0.05128  -0.00951   0.03284
  43 8   H  1S          0.06226  -0.16266   0.02783  -0.01223  -0.23489
  44        2S          0.03178  -0.08164   0.02885  -0.00475  -0.14157
  45 9   H  1S         -0.00701   0.05282   0.16511   0.20882   0.08987
  46        2S         -0.00492   0.02745   0.09296   0.11780   0.04973
  47 10  H  1S          0.08306   0.07463   0.05490  -0.24550   0.11091
  48        2S          0.04663   0.05191   0.03724  -0.17211   0.07967
                          16        17        18        19        20
                           V         V         V         V         V
     Eigenvalues --    -0.22862  -0.00299   0.02128   0.02931   0.06168
   1 1   C  1S         -0.00266   0.03957  -0.03380   0.02778  -0.05084
   2        2S          0.00736  -0.03606   0.07108  -0.05125   0.07602
   3        2PX         0.04376   0.10854   0.00961   0.12139  -0.06199
   4        2PY         0.02009  -0.23170  -0.07595   0.34742  -0.07197
   5        2PZ        -0.04957   0.01172   0.10532   0.17400   0.15855
   6        3S          0.00774  -0.51962   0.69403  -0.02964   0.76146
   7        3PX        -0.05595   0.31012   0.26361   0.32581  -0.09006
   8        3PY        -0.05995  -0.37299  -0.18776   0.96309  -0.10570
   9        3PZ         0.03294   0.08851   0.37308   0.43404   0.46847
  10 2   C  1S         -0.00302   0.03865  -0.10141   0.05043   0.04363
  11        2S          0.00020  -0.06340   0.15996  -0.05043  -0.06222
  12        2PX         0.02694   0.14852  -0.13169  -0.17122  -0.07340
  13        2PY         0.00978   0.31170   0.10772   0.03607  -0.09610
  14        2PZ        -0.03515   0.15805   0.04205  -0.06868   0.26596
  15        3S          0.04185  -0.30708   1.74018  -0.58782  -0.72525
  16        3PX        -0.05360   0.48560  -0.50695  -0.42550  -0.31391
  17        3PY        -0.01557   0.85332   0.52578   0.40736  -0.40393
  18        3PZ         0.10979   0.46335   0.07252  -0.08259   0.77758
  19 3   C  1S         -0.02533   0.00035  -0.01526  -0.00296   0.01307
  20        2S          0.04001  -0.00368   0.02449   0.00100  -0.01313
  21        2PX        -0.11546  -0.01369   0.03142  -0.00195   0.00370
  22        2PY        -0.03098  -0.01718   0.01383  -0.01079  -0.03389
  23        2PZ         0.03119   0.00481  -0.05654  -0.00314   0.10084
  24        3S          0.22443  -0.05014   0.16410  -0.05250  -0.23826
  25        3PX        -0.10011  -0.04717   0.17225   0.01248  -0.08277
  26        3PY         0.08536   0.04426   0.00911  -0.06232  -0.13020
  27        3PZ         0.05605   0.00468  -0.29167  -0.04754   0.21692
  28 4   O  1S          0.00117  -0.05873   0.00068  -0.07998   0.00846
  29        2S          0.00128   0.09282   0.00189   0.13744  -0.01977
  30        2PX        -0.25949  -0.16094   0.00722   0.22584   0.01311
  31        2PY        -0.09578   0.29869  -0.01146   0.14542   0.01339
  32        2PZ         0.42983  -0.02534  -0.05535   0.16724  -0.11644
  33        3S         -0.03341   0.80794   0.07219   1.10368  -0.09580
  34        3PX        -0.29819  -0.22483   0.05247   0.42235   0.06335
  35        3PY        -0.11148   0.58493   0.02835   0.38916   0.03649
  36        3PZ         0.46671  -0.00156  -0.08656   0.30498  -0.28804
  37 5   H  1S         -0.10297   0.00421  -0.01018   0.00174  -0.06272
  38        2S         -0.20817   0.06279  -0.77996  -0.15123  -1.19465
  39 6   H  1S         -0.10296   0.01161  -0.04290  -0.01323  -0.00953
  40        2S         -0.26328   0.11283  -1.54188  -0.10496  -0.53620
  41 7   H  1S          0.09993   0.00605  -0.03885  -0.00866   0.04534
  42        2S          0.22773   0.10970  -0.95779   0.04897   1.61126
  43 8   H  1S          0.00638  -0.02689  -0.03679   0.06757  -0.01334
  44        2S          0.02817  -0.06153  -0.21804   0.14049  -0.10063
  45 9   H  1S         -0.04391   0.00264   0.01186  -0.10868   0.01580
  46        2S         -0.13278   0.05259  -0.05611  -0.25548   0.09609
  47 10  H  1S          0.00134   0.01949   0.02863   0.03617  -0.00068
  48        2S         -0.05976   0.07810  -0.25549   0.10050   0.52334
                          21        22        23        24        25
                           V         V         V         V         V
     Eigenvalues --     0.08684   0.12097   0.14213   0.16755   0.20605
   1 1   C  1S         -0.10017   0.03095   0.06190  -0.00787  -0.09975
   2        2S          0.15127  -0.04383  -0.03496   0.00440   0.13655
   3        2PX        -0.07365  -0.09077   0.09584  -0.00896  -0.00575
   4        2PY        -0.04788   0.03117  -0.00530  -0.02216   0.03459
   5        2PZ         0.06851  -0.10997   0.08926   0.00267  -0.33147
   6        3S          1.92669  -0.39259  -1.43902   0.07138   2.47518
   7        3PX        -0.58994  -0.83405   0.23622   0.07720   0.15644
   8        3PY         0.00910   0.30877  -0.31153  -0.59817   0.49297
   9        3PZ         0.43771  -0.57208   0.26049  -0.09002  -2.00730
  10 2   C  1S          0.07305   0.03240  -0.05238  -0.00211   0.04595
  11        2S         -0.05555  -0.02593   0.07756  -0.03453   0.02266
  12        2PX         0.11909  -0.10361   0.09708  -0.05696  -0.00793
  13        2PY         0.06827   0.01859  -0.05233  -0.01210   0.07234
  14        2PZ        -0.14766   0.12556   0.00948   0.05907   0.09673
  15        3S         -1.45563  -0.87265   0.89495   0.28146  -1.31308
  16        3PX         0.01063  -0.79744   0.77813   0.09749  -1.41924
  17        3PY         0.45390   0.20286  -0.54535  -0.02848   0.65073
  18        3PZ        -0.93532   0.55102   0.09450   0.23619   0.17366
  19 3   C  1S         -0.04602  -0.11213  -0.08296   0.00280   0.06449
  20        2S          0.04703   0.09408   0.07131   0.00066   0.04052
  21        2PX         0.10353  -0.04183   0.12190  -0.01405   0.16958
  22        2PY         0.02027  -0.00799   0.01050   0.31859   0.01210
  23        2PZ        -0.07307  -0.09430   0.19725   0.01198   0.04739
  24        3S          1.05985   2.02832   1.53507  -0.06200  -1.63799
  25        3PX         0.40180  -0.12455   0.46997  -0.07140   1.72647
  26        3PY         0.06807  -0.11411   0.06052   1.60252   0.05856
  27        3PZ        -0.34027  -0.25725   0.88564   0.03487   0.41652
  28 4   O  1S          0.00083  -0.00708  -0.00186   0.00638   0.00899
  29        2S          0.00424   0.01655   0.02966   0.01631  -0.00459
  30        2PX        -0.08643   0.02711   0.10273   0.01569  -0.09844
  31        2PY         0.02348   0.03449  -0.04617   0.02662  -0.00955
  32        2PZ        -0.04309  -0.07367   0.01108  -0.07613  -0.01158
  33        3S          0.00046   0.05535  -0.15862  -0.24633  -0.11934
  34        3PX        -0.24896   0.00253   0.18947  -0.07990  -0.40841
  35        3PY         0.10918   0.10864  -0.13776  -0.01028   0.06732
  36        3PZ        -0.08003  -0.15857   0.03705  -0.14382  -0.02483
  37 5   H  1S         -0.00113   0.04427  -0.00440   0.01672   0.01921
  38        2S         -1.24026   0.94921   0.08996  -0.08137   1.22606
  39 6   H  1S          0.00287  -0.04839   0.03811   0.03702  -0.01449
  40        2S          1.27901  -0.84231   0.27680  -0.21649  -0.72006
  41 7   H  1S         -0.00067   0.05125   0.03398  -0.02265  -0.07728
  42        2S         -0.47726   0.90476  -0.09460   0.18087   0.34135
  43 8   H  1S          0.00572   0.00602  -0.04334   0.08991  -0.03613
  44        2S         -0.45097  -0.63841  -1.04959   1.76159  -0.35328
  45 9   H  1S          0.00142   0.02321  -0.05558  -0.06408  -0.03468
  46        2S         -0.48746  -0.35392  -1.49111  -1.41532  -0.62729
  47 10  H  1S         -0.01942  -0.06158   0.07993  -0.02811   0.01483
  48        2S         -0.72745  -1.28293   0.66111  -0.36801   1.00382
                          26        27        28        29        30
                           V         V         V         V         V
     Eigenvalues --     0.25787   0.45402   0.52175   0.54027   0.56918
   1 1   C  1S          0.00149   0.03983  -0.02329  -0.01382  -0.01792
   2        2S          0.02742  -0.00072   0.07034   0.18971   0.27538
   3        2PX         0.36837  -0.39600   0.03299  -0.47312  -0.19319
   4        2PY         0.00500   0.09821  -0.13842  -0.29588  -0.73023
   5        2PZ         0.00252  -0.00143  -0.08432  -0.03660  -0.37324
   6        3S         -0.35323   0.00507   0.00733  -1.09611  -0.69466
   7        3PX         2.65063   0.86503  -0.54707   1.14375   0.45523
   8        3PY        -0.24159  -0.23251  -0.18108   0.26385   0.93810
   9        3PZ         0.11445   0.25205  -0.05820   0.21023   0.61798
  10 2   C  1S         -0.03770  -0.01030  -0.00907   0.01622  -0.00537
  11        2S          0.04005   0.34601   0.10517  -0.24092   0.00659
  12        2PX         0.05626   0.41070  -0.53054  -0.18130   0.00012
  13        2PY        -0.19511  -0.65640  -0.66441   0.28893   0.06340
  14        2PZ         0.05422   0.16665  -0.34754   0.34056  -0.31072
  15        3S          1.34736  -0.01156  -0.40298   0.94667   0.12675
  16        3PX         1.03050  -0.54930   0.51495   0.70225  -0.07291
  17        3PY        -1.22804   1.00655   1.01282  -0.63642  -0.59086
  18        3PZ         1.03700  -0.23813   0.13419  -0.66561   0.73860
  19 3   C  1S          0.03413  -0.01902   0.00291  -0.00239  -0.00055
  20        2S          0.01150   0.04064  -0.08189  -0.13028   0.02121
  21        2PX         0.14419   0.00008   0.16498   0.43349  -0.15754
  22        2PY        -0.01721   0.08018  -0.28818  -0.19664   0.10215
  23        2PZ        -0.22946  -0.20389   0.17040  -0.21000  -0.17831
  24        3S         -1.09655  -0.25156   0.41125  -0.04045  -0.04094
  25        3PX         1.13341  -0.18901  -0.21187  -0.52297   0.15845
  26        3PY         0.22982  -0.02596   0.51159   0.35970  -0.21091
  27        3PZ        -1.44744   0.14463  -0.08391   0.04052   0.30904
  28 4   O  1S         -0.00384   0.01157   0.02278   0.00121   0.01113
  29        2S          0.01437  -0.11432  -0.15603  -0.01194  -0.09695
  30        2PX         0.05554  -0.01400  -0.07415  -0.10478  -0.02478
  31        2PY        -0.04268  -0.18309  -0.23095  -0.02879  -0.18278
  32        2PZ         0.04870  -0.04105  -0.07516   0.08898  -0.18110
  33        3S          0.08219   0.74470   0.29038   0.10194   0.39990
  34        3PX         0.23543   0.05245  -0.16138   0.03240   0.21431
  35        3PY        -0.13775   0.16389   0.08826  -0.06069   0.02463
  36        3PZ         0.22231   0.11732  -0.05107   0.22809  -0.01915
  37 5   H  1S          0.01680  -0.05963   0.05781   0.12910  -0.25543
  38        2S         -0.02797  -0.02230  -0.01062   0.05769  -0.01727
  39 6   H  1S          0.07955  -0.13025   0.01436   0.31680  -0.16168
  40        2S          0.09644   0.00369   0.06676   0.24229  -0.11853
  41 7   H  1S          0.06681  -0.17425  -0.15213  -0.18110   0.24230
  42        2S          1.02129  -0.08503  -0.15246  -0.20212   0.36289
  43 8   H  1S         -0.03641  -0.09192   0.19669   0.24036  -0.06209
  44        2S         -0.12501   0.07393  -0.03244  -0.01587   0.08762
  45 9   H  1S         -0.04620  -0.00145  -0.06302  -0.05658  -0.14238
  46        2S          0.19104   0.00709  -0.14070  -0.07406  -0.08985
  47 10  H  1S         -0.03557   0.21188  -0.18220  -0.01067   0.21280
  48        2S         -1.18782  -0.12590   0.07874  -0.21332   0.09186
                          31        32        33        34        35
                           V         V         V         V         V
     Eigenvalues --     0.62715   0.63619   0.66907   0.75818   0.80449
   1 1   C  1S          0.02038   0.05835  -0.03422   0.02727   0.00986
   2        2S          0.06899  -0.37816  -0.48392  -0.17362   0.43196
   3        2PX         0.01326   0.34582   0.32090  -0.63108   0.51388
   4        2PY         0.09609  -0.63884   0.14611   0.22137   0.16355
   5        2PZ         0.11459   0.10313  -0.21075  -0.37478  -0.62596
   6        3S          0.41488   0.72694   0.74845  -0.01224  -1.09334
   7        3PX        -0.56798  -0.27569  -0.53310   2.37595  -1.15219
   8        3PY        -0.58101   0.85259  -0.68746  -0.67612  -0.23183
   9        3PZ        -0.51655   0.03424   0.70139   1.57275   2.00734
  10 2   C  1S         -0.00385  -0.06151  -0.02590   0.02200   0.01348
  11        2S          0.18417   0.00087  -0.66979  -0.21227   0.55423
  12        2PX         0.07171   0.51371   0.05323   0.16602   0.20997
  13        2PY         0.03183  -0.10114   0.06125   0.14653  -0.01473
  14        2PZ         0.14936   0.33055  -0.05696  -0.16762   0.27752
  15        3S         -0.50939   0.15034   1.48973   1.83382  -0.91932
  16        3PX         0.02810  -0.76368  -0.20826   0.18694  -0.02546
  17        3PY         0.15704   0.15324   0.03307  -0.67720   0.22067
  18        3PZ        -0.37263  -0.59155  -0.00175   0.74646  -0.80460
  19 3   C  1S         -0.01093  -0.00837   0.01818  -0.02743   0.04163
  20        2S          0.21334   0.07883  -0.23969   0.13309  -0.04320
  21        2PX        -0.57080  -0.07803   0.46277  -0.05849   0.38640
  22        2PY        -0.61005  -0.06357  -0.23583  -0.28951  -0.09145
  23        2PZ        -0.19663   0.34825  -0.25554   0.66216   0.05209
  24        3S         -0.13450  -0.07114   0.50126  -0.61826   0.77702
  25        3PX         0.72871  -0.04423  -0.55221  -0.07696  -1.61515
  26        3PY         1.33792   0.09739   0.67199   0.85116   0.23459
  27        3PZ         0.81027  -0.73360   0.34502  -2.07405  -0.12314
  28 4   O  1S         -0.01318   0.00902   0.03184  -0.00114  -0.03263
  29        2S          0.18917  -0.08045  -0.19072  -0.01726   0.22178
  30        2PX         0.22738   0.13278   0.18995  -0.00114  -0.12780
  31        2PY        -0.01888  -0.09416   0.26603   0.09004  -0.20473
  32        2PZ        -0.13761   0.13223  -0.03726  -0.12198  -0.17684
  33        3S         -0.48878   0.10929  -0.43114   0.37337   0.32227
  34        3PX        -0.28143   0.06349  -0.14262   0.22146   0.37668
  35        3PY         0.02562  -0.06603  -0.32671   0.01539   0.44466
  36        3PZ        -0.04211   0.01755  -0.21695   0.06444   0.14802
  37 5   H  1S          0.07195   0.17436  -0.42901  -0.11209   0.17699
  38        2S          0.11503  -0.02841  -0.51557  -0.76878  -1.00144
  39 6   H  1S          0.09553  -0.23918  -0.40473  -0.00822   0.09407
  40        2S          0.17860  -0.11415  -0.28128  -0.29844   0.37423
  41 7   H  1S          0.01114  -0.31897  -0.24101   0.18473   0.29030
  42        2S         -0.15986  -0.23883  -0.24129   0.20146  -0.38410
  43 8   H  1S          0.20622   0.11222   0.07808   0.04980   0.26992
  44        2S          0.21547   0.17061   0.18829   0.37155   0.49180
  45 9   H  1S         -0.40849   0.02198  -0.17238  -0.05766   0.15402
  46        2S         -0.33849   0.05503  -0.11847   0.15209   0.35315
  47 10  H  1S          0.14166  -0.21133   0.12202  -0.23947   0.16777
  48        2S          0.22585  -0.22034  -0.06149  -0.86982  -0.09975
                          36        37        38        39        40
                           V         V         V         V         V
     Eigenvalues --     0.82553   0.92259   0.93307   0.99132   1.00648
   1 1   C  1S         -0.00891  -0.02947   0.00214  -0.02588  -0.00923
   2        2S          0.32593   0.44780   0.02245  -0.84691  -0.14666
   3        2PX         0.01087   0.00988  -0.15546   0.12452   0.08452
   4        2PY        -0.00677  -0.07056   0.21558   0.00060   0.05899
   5        2PZ         0.43516   0.69848  -0.12914  -0.02823   0.03787
   6        3S         -0.55012  -1.06599  -0.30409   1.65266  -0.62697
   7        3PX         0.68543   0.38801   0.83022  -1.07328  -0.04746
   8        3PY         0.15233   0.37477  -0.48620   0.27333  -0.45311
   9        3PZ        -1.97496  -1.20126   0.44844   0.70032   0.40708
  10 2   C  1S         -0.00127  -0.00511  -0.05195  -0.00326  -0.02210
  11        2S          0.15350   0.16369   0.59271   0.34895  -1.40419
  12        2PX         0.59607  -0.08328  -0.35826   0.11766   0.08959
  13        2PY         0.16902   0.02550   0.50694   0.16024  -0.06993
  14        2PZ        -0.79165   0.35629  -0.09404  -0.13960   0.02256
  15        3S         -0.27156  -0.32516  -0.93766  -1.35949   2.68750
  16        3PX        -1.61387  -0.15982   0.72769  -0.43181   0.15977
  17        3PY        -0.34357   0.03615  -0.55215  -0.01570   0.11976
  18        3PZ         2.39042  -0.31268   0.43084  -0.64102  -0.09917
  19 3   C  1S          0.01840   0.00044  -0.00428  -0.04195  -0.00403
  20        2S          0.08322  -0.17100   0.08889  -0.11490  -0.37971
  21        2PX         0.30744   0.17832  -0.02840  -0.06452  -0.10912
  22        2PY        -0.18732  -0.05803  -0.03029   0.06850  -0.33523
  23        2PZ        -0.09535   0.21935  -0.10743  -0.09256  -0.02821
  24        3S         -1.22278  -0.00374  -0.31761   0.98937   1.09275
  25        3PX        -0.19627  -0.05477   0.06686   0.13291   0.06819
  26        3PY         0.57787   0.15273   0.10765  -0.04398   0.39607
  27        3PZ         0.24713  -0.45679  -0.21006   0.21464   0.05302
  28 4   O  1S         -0.00895  -0.01502  -0.01879  -0.01405  -0.02627
  29        2S          0.08227   0.07201   0.09261   0.12898   0.28428
  30        2PX         0.04195  -0.09650   0.12428  -0.62564   0.00112
  31        2PY        -0.05964  -0.09265  -0.38358  -0.08268  -0.54714
  32        2PZ        -0.08123  -0.39077   0.00337  -0.09856   0.05269
  33        3S         -0.04156   0.15043   0.16512  -0.23850  -0.52350
  34        3PX        -0.01012   0.20317  -0.14703   0.81172   0.09965
  35        3PY         0.14680   0.21414   0.68523   0.14433   0.66144
  36        3PZ         0.02475   0.62046   0.02052   0.11397  -0.03384
  37 5   H  1S          0.13982  -0.71788   0.12812  -0.34245  -0.12009
  38        2S          1.09460   1.66285  -0.43176  -0.53867  -0.12444
  39 6   H  1S          0.24499  -0.42643  -0.74784   0.37792   0.23638
  40        2S         -1.70692   0.50287   1.07347  -0.07301  -0.76534
  41 7   H  1S         -0.21668   0.33634  -0.60827  -0.47945   0.04567
  42        2S          1.59206  -0.47161   1.06991   0.38118  -0.77057
  43 8   H  1S          0.17755   0.01201  -0.07892  -0.13599  -0.44526
  44        2S          0.40869   0.07697   0.09821  -0.19937   0.35326
  45 9   H  1S          0.12894  -0.08382   0.15657  -0.42059   0.38220
  46        2S         -0.12893   0.08604  -0.10182  -0.02294  -0.75620
[...]
  11        2S          0.70425   0.34902   0.35523  -0.00622
  12        2PX         0.77635   0.38621   0.39014  -0.00394
  13        2PY         0.48662   0.22304   0.26358  -0.04054
  14        2PZ         0.77249   0.38183   0.39066  -0.00883
  15        3S          0.67148   0.33053   0.34096  -0.01043
  16        3PX         0.27669   0.13475   0.14194  -0.00718
  17        3PY         0.04740   0.01533   0.03207  -0.01674
  18        3PZ         0.41364   0.19840   0.21524  -0.01685
  19 3   C  1S          1.99768   0.99885   0.99883   0.00001
  20        2S          0.64764   0.32573   0.32191   0.00382
  21        2PX         0.63160   0.32648   0.30512   0.02135
  22        2PY         0.75187   0.37732   0.37455   0.00277
  23        2PZ         0.71736   0.36047   0.35689   0.00358
  24        3S          0.76994   0.38554   0.38440   0.00114
  25        3PX         0.14535   0.07699   0.06835   0.00864
  26        3PY         0.46351   0.23137   0.23214  -0.00077
  27        3PZ         0.35721   0.17944   0.17776   0.00168
  28 4   O  1S          1.99825   0.99913   0.99912   0.00001
  29        2S          0.96880   0.50289   0.46591   0.03697
  30        2PX         0.94782   0.57951   0.36831   0.21120
  31        2PY         0.97510   0.52459   0.45052   0.07407
  32        2PZ         0.80404   0.64121   0.16283   0.47838
  33        3S          1.05032   0.51999   0.53033  -0.01034
  34        3PX         0.47203   0.27029   0.20173   0.06856
  35        3PY         0.51252   0.25686   0.25566   0.00120
  36        3PZ         0.39206   0.29149   0.10056   0.19093
  37 5   H  1S          0.51190   0.26743   0.24447   0.02296
  38        2S          0.14681   0.08114   0.06567   0.01547
  39 6   H  1S          0.51544   0.26824   0.24720   0.02103
  40        2S          0.18119   0.09870   0.08249   0.01622
  41 7   H  1S          0.50957   0.26462   0.24495   0.01967
  42        2S          0.16092   0.08724   0.07368   0.01356
  43 8   H  1S          0.51252   0.25532   0.25720  -0.00188
  44        2S          0.20176   0.09982   0.10194  -0.00212
  45 9   H  1S          0.50661   0.25345   0.25316   0.00030
  46        2S          0.20168   0.10135   0.10033   0.00102
  47 10  H  1S          0.52526   0.26185   0.26341  -0.00155
  48        2S          0.25281   0.12612   0.12669  -0.00057
          Condensed to atoms (all electrons):
               1          2          3          4          5          6
     1  C    5.629926   0.152459   0.159208  -0.115021   0.377164  -0.027617
     2  C    0.152459   5.364602  -0.040344  -0.040766  -0.032449   0.371842
     3  C    0.159208  -0.040344   5.234528  -0.024066  -0.008138   0.000765
     4  O   -0.115021  -0.040766  -0.024066   8.349883  -0.019949  -0.013867
     5  H    0.377164  -0.032449  -0.008138  -0.019949   0.344684  -0.000150
     6  H   -0.027617   0.371842   0.000765  -0.013867  -0.000150   0.370373
     7  H   -0.026261   0.370368   0.001255  -0.014805   0.000596  -0.004772
     8  H   -0.041500   0.003865   0.384531  -0.000565  -0.002923  -0.000052
     9  H   -0.035167  -0.000699   0.380723   0.001803  -0.002428  -0.000005
    10  H   -0.049300  -0.002306   0.393686  -0.001717   0.002308   0.000118
               7          8          9         10
     1  C   -0.026261  -0.041500  -0.035167  -0.049300
     2  C    0.370368   0.003865  -0.000699  -0.002306
     3  C    0.001255   0.384531   0.380723   0.393686
     4  O   -0.014805  -0.000565   0.001803  -0.001717
     5  H    0.000596  -0.002923  -0.002428   0.002308
     6  H   -0.004772  -0.000052  -0.000005   0.000118
     7  H    0.342922  -0.000018   0.000181   0.001018
     8  H   -0.000018   0.402863  -0.011799  -0.020121
     9  H    0.000181  -0.011799   0.393334  -0.017657
    10  H    0.001018  -0.020121  -0.017657   0.472033
          Atomic-Atomic Spin Densities.
               1          2          3          4          5          6
     1  C   -0.085686   0.038522   0.029791  -0.082906   0.012078  -0.000230
     2  C    0.038522  -0.100960  -0.000665  -0.067883  -0.001442   0.009950
     3  C    0.029791  -0.000665   0.025816  -0.003436  -0.003195  -0.000105
     4  O   -0.082906  -0.067883  -0.003436   1.214346  -0.003380  -0.003741
     5  H    0.012078  -0.001442  -0.003195  -0.003380   0.032874   0.000929
     6  H   -0.000230   0.009950  -0.000105  -0.003741   0.000929   0.033846
     7  H    0.000141   0.012263   0.000487  -0.003706  -0.000153  -0.003458
     8  H    0.001798  -0.000007  -0.002163   0.000007  -0.000079  -0.000001
     9  H   -0.000199  -0.000045  -0.001792   0.000154   0.000631   0.000023
    10  H    0.000107  -0.000479  -0.002522   0.001550   0.000173   0.000034
               7          8          9         10
     1  C    0.000141   0.001798  -0.000199   0.000107
     2  C    0.012263  -0.000007  -0.000045  -0.000479
     3  C    0.000487  -0.002163  -0.001792  -0.002522
     4  O   -0.003706   0.000007   0.000154   0.001550
     5  H   -0.000153  -0.000079   0.000631   0.000173
     6  H   -0.003458  -0.000001   0.000023   0.000034
     7  H    0.028129  -0.000002  -0.000105  -0.000366
     8  H   -0.000002  -0.003640   0.000103  -0.000013
     9  H   -0.000105   0.000103   0.001575   0.000970
    10  H   -0.000366  -0.000013   0.000970  -0.001581
 Mulliken charges and spin densities:
               1          2
     1  C   -0.023889  -0.086585
     2  C   -0.146571  -0.110745
     3  C   -0.482148   0.042216
     4  O   -0.120929   1.051005
     5  H    0.341284   0.038436
     6  H    0.303365   0.037248
     7  H    0.329516   0.033231
     8  H    0.285719  -0.003997
     9  H    0.291715   0.001315
    10  H    0.221937  -0.002125
 Sum of Mulliken charges =   1.00000   1.00000
 Mulliken charges and spin densities with hydrogens summed into heavy atoms:
               1          2
     1  C    0.317396  -0.048148
     2  C    0.486310  -0.040266
     3  C    0.317223   0.037409
     4  O   -0.120929   1.051005
 Electronic spatial extent (au):  <R**2>=            253.1566
 Charge=              1.0000 electrons
 Dipole moment (field-independent basis, Debye):
    X=              0.0110    Y=              1.6417    Z=              0.9952  Tot=              1.9199
 Quadrupole moment (field-independent basis, Debye-Ang):
   XX=            -14.8379   YY=            -21.5242   ZZ=            -19.4573
   XY=             -2.3353   XZ=             -0.3810   YZ=             -1.3244
 Traceless Quadrupole moment (field-independent basis, Debye-Ang):
   XX=              3.7685   YY=             -2.9177   ZZ=             -0.8508
   XY=             -2.3353   XZ=             -0.3810   YZ=             -1.3244
 Octapole moment (field-independent basis, Debye-Ang**2):
  XXX=              1.5810  YYY=              0.9059  ZZZ=              1.4429  XYY=             -0.8762
  XXY=              3.6344  XXZ=              1.8061  XZZ=             -1.2660  YZZ=              0.4312
  YYZ=             -0.1446  XYZ=              0.9100
 Hexadecapole moment (field-independent basis, Debye-Ang**3):
 XXXX=           -166.0514 YYYY=            -61.6915 ZZZZ=            -39.1922 XXXY=             -2.8533
 XXXZ=             -3.0491 YYYX=             -2.7506 YYYZ=             -1.5883 ZZZX=              0.9737
 ZZZY=             -2.4731 XXYY=            -35.9076 XXZZ=            -38.5582 YYZZ=            -16.9552
 XXYZ=              1.6587 YYXZ=              1.0225 ZZXY=             -0.4950
 N-N= 1.247885347085D+02 E-N=-6.899709409326D+02  KE= 1.919142746500D+02
 Orbital energies and kinetic energies (alpha):
                                 1                 2
   1         O               -21.028817         29.172359
   2         O               -11.575220         16.018945
   3         O               -11.572456         16.021916
   4         O               -11.422123         16.017061
   5         O                -1.864199          2.673546
   6         O                -1.290586          1.952099
   7         O                -1.212722          1.635407
   8         O                -1.120257          1.721363
   9         O                -1.069711          2.012623
  10         O                -0.967437          1.787604
  11         O                -0.912465          1.856033
  12         O                -0.856322          1.526997
  13         O                -0.806807          1.378410
  14         O                -0.769671          1.361037
  15         O                -0.735893          1.098720
  16         O                -0.705262          1.315351
  17         V                -0.017237          1.782238
  18         V                 0.016673          1.745725
  19         V                 0.018671          0.883172
  20         V                 0.051138          0.879287
  21         V                 0.085415          1.063462
  22         V                 0.116052          0.983295
  23         V                 0.140487          1.038273
  24         V                 0.164322          0.770670
  25         V                 0.203453          1.311557
  26         V                 0.256892          1.308727
  27         V                 0.450951          1.987760
  28         V                 0.520061          2.199788
  29         V                 0.528404          2.153265
  30         V                 0.565908          2.270962
  31         V                 0.606639          2.024361
  32         V                 0.632224          2.762760
  33         V                 0.652233          2.312616
  34         V                 0.752738          2.390746
  35         V                 0.796685          2.757687
  36         V                 0.821646          2.601611
  37         V                 0.890235          2.897003
  38         V                 0.922541          2.921529
  39         V                 0.954007          2.833442
  40         V                 0.992953          2.890734
  41         V                 1.014775          2.745448
  42         V                 1.057391          2.827145
  43         V                 1.062553          2.592917
  44         V                 1.076842          2.913230
  45         V                 1.125557          2.481541
  46         V                 1.335876          2.689079
  47         V                 1.523867          2.576396
  48         V                 1.681772          4.218446
 Orbital energies and kinetic energies (beta):
                                 1                 2
   1         O               -20.982512         29.222871
   2         O               -11.577535         16.016941
   3         O               -11.574253         16.020207
   4         O               -11.420864         16.018228
   5         O                -1.741201          2.345506
   6         O                -1.251529          1.806406
   7         O                -1.193789          1.734461
   8         O                -1.086040          1.576092
   9         O                -0.966317          1.323837
  10         O                -0.915216          1.504365
  11         O                -0.869591          1.637055
  12         O                -0.796138          1.379516
  13         O                -0.764948          1.311752
  14         O                -0.731458          1.108248
  15         O                -0.700619          1.359321
  16         V                -0.228618          1.837465
  17         V                -0.002989          1.754889
  18         V                 0.021282          0.861340
  19         V                 0.029308          1.856424
  20         V                 0.061684          0.927272
  21         V                 0.086837          1.062178
  22         V                 0.120967          0.986360
  23         V                 0.142129          1.044178
  24         V                 0.167547          0.799520
  25         V                 0.206055          1.330563
  26         V                 0.257870          1.316912
  27         V                 0.454019          1.987951
  28         V                 0.521747          2.377924
  29         V                 0.540271          1.962540
  30         V                 0.569178          2.286976
  31         V                 0.627154          2.108796
  32         V                 0.636188          2.706625
  33         V                 0.669073          2.307215
  34         V                 0.758184          2.436476
  35         V                 0.804494          2.713963
  36         V                 0.825527          2.597047
  37         V                 0.922594          2.927089
  38         V                 0.933070          2.930460
  39         V                 0.991317          2.888593
  40         V                 1.006483          2.851098
  41         V                 1.044892          2.800502
  42         V                 1.061827          2.835212
  43         V                 1.078509          2.922591
  44         V                 1.098914          3.062365
  45         V                 1.148515          2.868800
  46         V                 1.344183          2.767819
  47         V                 1.526752          2.601636
  48         V                 1.724370          4.280759
 Total kinetic energy from orbitals= 1.919142746500D+02
                          Isotropic Fermi Contact Couplings
        Atom                 a.u.       MegaHertz       Gauss      10(-4) cm-1
     1  C(13)             -0.02872     -32.28671     -11.52070     -10.76969
     2  C(13)             -0.03120     -35.07543     -12.51579     -11.69990
     3  C(13)              0.01472      16.55231       5.90628       5.52126
     4  O(17)              0.30795    -186.67720     -66.61107     -62.26881
     5  H(1)               0.01935      86.47213      30.85541      28.84400
     6  H(1)               0.01760      78.68418      28.07647      26.24622
     7  H(1)               0.01642      73.39685      26.18982      24.48255
     8  H(1)              -0.00154      -6.87357      -2.45266      -2.29278
     9  H(1)               0.00020       0.90649       0.32346       0.30237
    10  H(1)              -0.00129      -5.74706      -2.05069      -1.91701
 --------------------------------------------------------
       Center         ----  Spin Dipole Couplings  ----
                      3XX-RR        3YY-RR        3ZZ-RR
 --------------------------------------------------------
     1   Atom        0.036323     -0.049493      0.013170
     2   Atom        0.000036      0.005691     -0.005726
     3   Atom        0.049937     -0.024730     -0.025207
     4   Atom       -0.380781     -1.603149      1.983930
     5   Atom       -0.000362     -0.009875      0.010237
     6   Atom       -0.007180      0.014706     -0.007526
     7   Atom       -0.008845      0.022618     -0.013773
     8   Atom        0.010877     -0.003465     -0.007412
     9   Atom        0.002426      0.000582     -0.003007
    10   Atom        0.007818     -0.005678     -0.002140
 --------------------------------------------------------
                        XY            XZ            YZ
 --------------------------------------------------------
     1   Atom        0.006298      0.008232     -0.013967
     2   Atom       -0.043150     -0.019438     -0.027284
     3   Atom        0.022478     -0.015797     -0.004717
     4   Atom        0.466433     -2.283232     -0.863615
     5   Atom        0.004486      0.016796      0.010561
     6   Atom       -0.014920     -0.001792      0.009562
     7   Atom       -0.004714      0.001748     -0.008601
     8   Atom       -0.002431      0.001619     -0.000753
     9   Atom        0.005912      0.002300      0.003651
    10   Atom        0.008407     -0.005596     -0.004346
 --------------------------------------------------------


 ---------------------------------------------------------------------------------
              Anisotropic Spin Dipole Couplings in Principal Axis System
 ---------------------------------------------------------------------------------

       Atom             a.u.   MegaHertz   Gauss  10(-4) cm-1        Axes

              Baa    -0.0532    -7.134    -2.546    -2.380 -0.0883  0.9725  0.2157
     1 C(13)  Bbb     0.0142     1.902     0.679     0.634 -0.2802 -0.2321  0.9315
              Bcc     0.0390     5.232     1.867     1.745  0.9559  0.0218  0.2930
 
              Baa    -0.0603    -8.091    -2.887    -2.699  0.6017  0.6078  0.5182
     2 C(13)  Bbb     0.0131     1.759     0.628     0.587 -0.4917 -0.2294  0.8400
              Bcc     0.0472     6.332     2.259     2.112 -0.6294  0.7602 -0.1608
 
              Baa    -0.0310    -4.161    -1.485    -1.388 -0.2445  0.9626  0.1168
     3 C(13)  Bbb    -0.0284    -3.809    -1.359    -1.270  0.2149 -0.0637  0.9746
              Bcc     0.0594     7.970     2.844     2.659  0.9455  0.2634 -0.1912
 
              Baa    -1.8299   132.408    47.246    44.166  0.4677  0.7596  0.4520
     4 O(17)  Bbb    -1.7291   125.115    44.644    41.734  0.7226 -0.6231  0.2994
              Bcc     3.5589  -257.522   -91.890   -85.900 -0.5091 -0.1866  0.8403
 
              Baa    -0.0155    -8.296    -2.960    -2.767  0.4066  0.7216 -0.5604
     5 H(1)   Bbb    -0.0105    -5.598    -1.998    -1.867  0.7311 -0.6248 -0.2741
              Bcc     0.0260    13.894     4.958     4.635  0.5479  0.2983  0.7816
 
              Baa    -0.0159    -8.509    -3.036    -2.838  0.7668  0.4991 -0.4035
     6 H(1)   Bbb    -0.0090    -4.812    -1.717    -1.605  0.4878 -0.0446  0.8718
              Bcc     0.0250    13.321     4.753     4.443 -0.4171  0.8654  0.2777
 
              Baa    -0.0158    -8.417    -3.003    -2.808 -0.1060  0.2050  0.9730
     7 H(1)   Bbb    -0.0095    -5.069    -1.809    -1.691  0.9838  0.1638  0.0726
              Bcc     0.0253    13.486     4.812     4.499 -0.1445  0.9650 -0.2190
 
              Baa    -0.0076    -4.071    -1.453    -1.358 -0.0682  0.1388  0.9880
     8 H(1)   Bbb    -0.0038    -2.030    -0.724    -0.677  0.1755  0.9765 -0.1251
              Bcc     0.0114     6.101     2.177     2.035  0.9821 -0.1648  0.0909
 
              Baa    -0.0057    -3.025    -1.079    -1.009 -0.3068  0.6794 -0.6665
     9 H(1)   Bbb    -0.0033    -1.737    -0.620    -0.579 -0.6487  0.3632  0.6688
              Bcc     0.0089     4.762     1.699     1.589  0.6965  0.6376  0.3293
 
              Baa    -0.0101    -5.389    -1.923    -1.797 -0.3460  0.9042  0.2505
    10 H(1)   Bbb    -0.0046    -2.461    -0.878    -0.821  0.4506 -0.0740  0.8897
              Bcc     0.0147     7.850     2.801     2.618  0.8230  0.4207 -0.3818
 

 ---------------------------------------------------------------------------------

 Unable to Open any file for archive entry.
 1\1\GINC-MEDUSA\SP\UHF\6-31G\C3H6O1(1+,2)\PLESTRAN\01-Oct-2015\0\\# uh
 f/6-31G gfinput pop=full nosymm Field=X-100\\S-Propylene Oxide 6-31G\\
 1,2\C,0,0.152133,-0.0358,0.485797\C,0,-1.039475,0.615938,-0.061249\C,0
 ,1.507144,0.097806,-0.14846\O,0,-0.828215,-0.788248,-0.239431\H,0,0.15
 3725,-0.249258,1.552136\H,0,-1.863178,0.881921,0.593333\H,0,-0.949807,
 1.21421,-0.962771\H,0,2.076806,-0.826189,-0.036671\H,0,2.074465,0.9017
 88,0.325106\H,0,1.414895,0.315852,-1.212218\\Version=ES64L-GDVRevI.03+
 \HF=-191.4807778\EFC=0.\S2=0.762742\S2-1=0.\S2A=0.750124\RMSD=4.133e-0
 9\Dipole=0.0043368,0.6459119,0.3915454\Quadrupole=2.8018225,-2.1692556
 ,-0.6325669,-1.7362031,-0.2832597,-0.9846405\PG=C01 [X(C3H6O1)]\\@
 The archive entry for this job was punched.


 YOU CAN LEAD A BOY TO COLLEGE....
 BUT YOU CANNOT MAKE HIM THINK....
           ELBERT HUBBARD
 Job cpu time:       0 days  0 hours  0 minutes  1.2 seconds.
 Elapsed time:       0 days  0 hours  0 minutes  1.0 seconds.
 File lengths (MBytes):  RWF=      5 Int=      0 D2E=      0 Chk=      1 Scr=      1
 Normal termination of Gaussian DV at Thu Oct  1 15:46:39 2015.
