 Entering Gaussian System, Link 0=gdv
 Input=propylene-oxide_ccpVDZ.com
 Output=propylene-oxide_ccpVDZ.log
 Initial command:
 /home/gauss/gdvi03p/gdv/l1.exe "/home/GauScr/Gau-9944.inp" -scrdir="/home/GauScr/"
 Entering Link 1 = /home/gauss/gdvi03p/gdv/l1.exe PID=      9945.
  
 Copyright (c) 1988,1990,1992,1993,1995,1998,2003,2009,2015,
            Gaussian, Inc.  All Rights Reserved.
  
 This is the private, development version of
 the Gaussian(R) DV system of programs. It is based on
 the Gaussian(R) 09 system (copyright 2009, Gaussian, Inc.),
 the Gaussian(R) 03 system (copyright 2003, Gaussian, Inc.),
 the Gaussian(R) 98 system (copyright 1998, Gaussian, Inc.),
 the Gaussian(R) 94 system (copyright 1995, Gaussian, Inc.),
 the Gaussian 92(TM) system (copyright 1992, Gaussian, Inc.),
 the Gaussian 90(TM) system (copyright 1990, Gaussian, Inc.),
 the Gaussian 88(TM) system (copyright 1988, Gaussian, Inc.),
 the Gaussian 86(TM) system (copyright 1986, Carnegie Mellon
 University), and the Gaussian 82(TM) system (copyright 1983,
 Carnegie Mellon University). Gaussian is a federally registered
 trademark of Gaussian, Inc.
  
 This software contains proprietary and confidential information,
 including trade secrets, belonging to Gaussian, Inc.
  
 This software is provided under written license and may be
 used, copied, transmitted, or stored only in accord with that
 written license.
  
 The following legend is applicable only to US Government
 contracts under FAR:
  
                    RESTRICTED RIGHTS LEGEND
  
 Use, reproduction and disclosure by the US Government is
 subject to restrictions as set forth in subparagraphs (a)
 and (c) of the Commercial Computer Software - Restricted
 Rights clause in FAR 52.227-19.
  
 Gaussian, Inc.
 340 Quinnipiac St., Bldg. 40, Wallingford CT 06492
  
  
 ---------------------------------------------------------------
 Warning -- This program may not be used in any manner that
 competes with the business of Gaussian, Inc. or will provide
 assistance to any competitor of Gaussian, Inc.  The licensee
 of this program is prohibited from giving any competitor of
 Gaussian, Inc. access to this program.  By using this program,
 the user acknowledges that Gaussian, Inc. is engaged in the
 business of creating and licensing software in the field of
 computational chemistry and represents and warrants to the
 licensee that it is not a competitor of Gaussian, Inc. and that
 it will not use this program in any manner prohibited above.
 ---------------------------------------------------------------
  

 Cite this work as:
 Gaussian Development Version, Revision I.03+,
 M. J. Frisch, G. W. Trucks, H. B. Schlegel, G. E. Scuseria, 
 M. A. Robb, J. R. Cheeseman, G. Scalmani, V. Barone, B. Mennucci, 
 G. A. Petersson, H. Nakatsuji, M. Caricato, X. Li, H. P. Hratchian, 
 J. Bloino, B. G. Janesko, A. F. Izmaylov, A. Marenich, F. Lipparini, 
 G. Zheng, J. L. Sonnenberg, W. Liang, M. Hada, M. Ehara, K. Toyota, 
 R. Fukuda, J. Hasegawa, M. Ishida, T. Nakajima, Y. Honda, O. Kitao, 
 H. Nakai, T. Vreven, K. Throssell, J. A. Montgomery, Jr., 
 J. E. Peralta, F. Ogliaro, M. Bearpark, J. J. Heyd, E. Brothers, 
 K. N. Kudin, V. N. Staroverov, T. Keith, R. Kobayashi, J. Normand, 
 K. Raghavachari, A. Rendell, J. C. Burant, S. S. Iyengar, J. Tomasi, 
 M. Cossi, N. Rega, J. M. Millam, M. Klene, J. E. Knox, J. B. Cross, 
 V. Bakken, C. Adamo, J. Jaramillo, R. Gomperts, R. E. Stratmann, 
 O. Yazyev, A. J. Austin, R. Cammi, C. Pomelli, J. W. Ochterski, 
 R. L. Martin, K. Morokuma, V. G. Zakrzewski, G. A. Voth, 
 P. Salvador, J. J. Dannenberg, S. Dapprich, P. V. Parandekar, 
 N. J. Mayhall, A. D. Daniels, O. Farkas, J. B. Foresman, 
 J. V. Ortiz, J. Cioslowski, and D. J. Fox, 
 Gaussian, Inc., Wallingford CT, 2014.
 
 *******************************************
 Gaussian DV:  ES64L-GDVRevI.03+  2-May-2015
                  1-Oct-2015 
 *******************************************
 ---------------------
 #p uhf/cc-pVDZ nosymm
 ---------------------
 1/38=1,172=1/1;
 2/12=2,15=1,17=6,18=5,40=1/2;
 3/5=16,11=2,25=1,30=1,116=2/1,2,3;
 4//1;
 5/5=2,38=5/2;
 6/7=2,8=2,9=2,10=2,28=1/1;
 99/5=1,9=1/99;
 Leave Link    1 at Thu Oct  1 15:39:34 2015, MaxMem=           0 cpu:               0.0 elap:               0.0
 (Enter /home/gauss/gdvi03p/gdv/l101.exe)
 -------------------------
 S-Propylene Oxide cc-pVDZ
 -------------------------
 Symbolic Z-matrix:
 Charge =  1 Multiplicity = 2
 C                     0.15213  -0.0358    0.4858 
 C                    -1.03947   0.61594  -0.06125 
 C                     1.50714   0.09781  -0.14846 
 O                    -0.82822  -0.78825  -0.23943 
 H                     0.15373  -0.24926   1.55214 
 H                    -1.86318   0.88192   0.59333 
 H                    -0.94981   1.21421  -0.96277 
 H                     2.07681  -0.82619  -0.03667 
 H                     2.07447   0.90179   0.32511 
 H                     1.4149    0.31585  -1.21222 
 
 ITRead=  0  0  0  0  0  0  0  0  0  0
 MicOpt= -1 -1 -1 -1 -1 -1 -1 -1 -1 -1
 NAtoms=     10 NQM=       10 NQMF=       0 NMMI=      0 NMMIF=      0
                NMic=       0 NMicF=      0.
                    Isotopes and Nuclear Properties:
 (Nuclear quadrupole moments (NQMom) in fm**2, nuclear magnetic moments (NMagM)
  in nuclear magnetons)

  Atom         1           2           3           4           5           6           7           8           9          10
 IAtWgt=          12          12          12          16           1           1           1           1           1           1
 AtmWgt=  12.0000000  12.0000000  12.0000000  15.9949146   1.0078250   1.0078250   1.0078250   1.0078250   1.0078250   1.0078250
 NucSpn=           0           0           0           0           1           1           1           1           1           1
 AtZEff=   0.0000000   0.0000000   0.0000000   0.0000000   0.0000000   0.0000000   0.0000000   0.0000000   0.0000000   0.0000000
 NQMom=    0.0000000   0.0000000   0.0000000   0.0000000   0.0000000   0.0000000   0.0000000   0.0000000   0.0000000   0.0000000
 NMagM=    0.0000000   0.0000000   0.0000000   0.0000000   2.7928460   2.7928460   2.7928460   2.7928460   2.7928460   2.7928460
 AtZNuc=   6.0000000   6.0000000   6.0000000   8.0000000   1.0000000   1.0000000   1.0000000   1.0000000   1.0000000   1.0000000
 Leave Link  101 at Thu Oct  1 15:39:34 2015, MaxMem=    33554432 cpu:               0.1 elap:               0.1
 (Enter /home/gauss/gdvi03p/gdv/l202.exe)
                          Input orientation:                          
 ---------------------------------------------------------------------
 Center     Atomic      Atomic             Coordinates (Angstroms)
 Number     Number       Type             X           Y           Z
 ---------------------------------------------------------------------
      1          6           0        0.152133   -0.035800    0.485797
      2          6           0       -1.039475    0.615938   -0.061249
      3          6           0        1.507144    0.097806   -0.148460
      4          8           0       -0.828215   -0.788248   -0.239431
      5          1           0        0.153725   -0.249258    1.552136
      6          1           0       -1.863178    0.881921    0.593333
      7          1           0       -0.949807    1.214210   -0.962771
      8          1           0        2.076806   -0.826189   -0.036671
      9          1           0        2.074465    0.901788    0.325106
     10          1           0        1.414895    0.315852   -1.212218
 ---------------------------------------------------------------------
                    Distance matrix (angstroms):
                    1          2          3          4          5
     1  C    0.000000
     2  C    1.464224   0.000000
     3  C    1.502061   2.600257   0.000000
     4  O    1.432905   1.431125   2.499454   0.000000
     5  H    1.087495   2.185246   2.200960   2.112919   0.000000
     6  H    2.217037   1.085224   3.538950   2.134036   2.503351
     7  H    2.207973   1.085685   2.818877   2.132567   3.111957
     8  H    2.145240   3.433881   1.091228   2.912336   2.560351
     9  H    2.144820   3.150810   1.092019   3.405947   2.553380
    10  H    2.145107   2.727400   1.089787   2.682703   3.090559
                    6          7          8          9         10
     6  H    0.000000
     7  H    1.834699   0.000000
     8  H    4.340279   3.765803   0.000000
     9  H    3.946818   3.301887   1.765444   0.000000
    10  H    3.784998   2.541867   1.767567   1.772489   0.000000
 Symmetry turned off by external request.
 Stoichiometry    C3H6O(1+,2)
 Framework group  C1[X(C3H6O)]
 Deg. of freedom    24
 Full point group                 C1      NOp   1
 Rotational constants (GHZ):     18.2269979      6.6669563      5.9403328
 Leave Link  202 at Thu Oct  1 15:39:34 2015, MaxMem=    33554432 cpu:               0.0 elap:               0.0
 (Enter /home/gauss/gdvi03p/gdv/l301.exe)
 Standard basis: CC-pVDZ (5D, 7F)
 Ernie: Thresh=  0.10000D-02 Tol=  0.10000D-05 Strict=F.
 Ernie:  8 primitive shells out of 118 were deleted.
    86 basis functions,   174 primitive gaussians,    90 cartesian basis functions
    16 alpha electrons       15 beta electrons
       nuclear repulsion energy       124.7885346707 Hartrees.
 IExCor=    0 DFT=F Ex=HF Corr=None ExCW=0 ScaHFX=  1.000000
 ScaDFX=  1.000000  1.000000  1.000000  1.000000 ScalE2=  1.000000  1.000000
 IRadAn=      0 IRanWt=     -1 IRanGd=            0 ICorTp=0 IEmpDi=  4
 NAtoms=   10 NActive=   10 NUniq=   10 SFac= 1.00D+00 NAtFMM=   60 NAOKFM=F Big=F
 Integral buffers will be    131072 words long.
 Raffenetti 2 integral format.
 Two-electron integral symmetry is turned off.
 Leave Link  301 at Thu Oct  1 15:39:34 2015, MaxMem=    33554432 cpu:               0.0 elap:               0.1
 (Enter /home/gauss/gdvi03p/gdv/l302.exe)
 NPDir=0 NMtPBC=     1 NCelOv=     1 NCel=       1 NClECP=     1 NCelD=      1
         NCelK=      1 NCelE2=     1 NClLst=     1 CellRange=     0.0.
 One-electron integrals computed using PRISM.
 One-electron integral symmetry used in STVInt
 NBasis=    86 RedAO= T EigKep=  3.18D-03  NBF=    86
 NBsUse=    86 1.00D-06 EigRej= -1.00D+00 NBFU=    86
 Leave Link  302 at Thu Oct  1 15:39:34 2015, MaxMem=    33554432 cpu:               0.1 elap:               0.1
 (Enter /home/gauss/gdvi03p/gdv/l303.exe)
 DipDrv:  MaxL=1.
 Leave Link  303 at Thu Oct  1 15:39:34 2015, MaxMem=    33554432 cpu:               0.0 elap:               0.0
 (Enter /home/gauss/gdvi03p/gdv/l401.exe)
 ExpMin= 1.22D-01 ExpMax= 1.17D+04 ExpMxC= 4.01D+02 IAcc=1 IRadAn=         1 AccDes= 0.00D+00
 Harris functional with IExCor=  205 and IRadAn=       1 diagonalized for initial guess.
 HarFok:  IExCor=  205 AccDes= 0.00D+00 IRadAn=         1 IDoV= 1 UseB2=F ITyADJ=14
 ICtDFT=  3500011 ScaDFX=  1.000000  1.000000  1.000000  1.000000
 FoFCou: FMM=F IPFlag=           0 FMFlag=      100000 FMFlg1=           0
         NFxFlg=           0 DoJE=T BraDBF=F KetDBF=T FulRan=T
         wScrn=  0.000000 ICntrl=       500 IOpCl=  0 I1Cent=   200000004 NGrid=           0
         NMat0=    1 NMatS0=      1 NMatT0=    0 NMatD0=    1 NMtDS0=    0 NMtDT0=    0
 Symmetry not used in FoFCou.
 Harris En= -191.831962805942    
 JPrj=0 DoOrth=F DoCkMO=F.
 Initial guess <Sx>= 0.0000 <Sy>= 0.0000 <Sz>= 0.5000 <S**2>= 0.7500 S= 0.5000
 Leave Link  401 at Thu Oct  1 15:39:34 2015, MaxMem=    33554432 cpu:               0.3 elap:               0.3
 (Enter /home/gauss/gdvi03p/gdv/l502.exe)
 Keep R1 and R2 ints in memory in canonical form, NReq=14901755.
 FoFCou: FMM=F IPFlag=           0 FMFlag=           0 FMFlg1=           0
         NFxFlg=           0 DoJE=F BraDBF=F KetDBF=F FulRan=T
         wScrn=  0.000000 ICntrl=       600 IOpCl=  0 I1Cent=           0 NGrid=           0
         NMat0=    1 NMatS0=   3741 NMatT0=    0 NMatD0=    1 NMtDS0=    0 NMtDT0=    0
 Symmetry not used in FoFCou.
 Two-electron integral symmetry not used.
 UHF open shell SCF:
 Using DIIS extrapolation, IDIIS=  1040.
 NGot=    33554432 LenX=    19537938 LenY=    19529397
 Requested convergence on RMS density matrix=1.00D-08 within 128 cycles.
 Requested convergence on MAX density matrix=1.00D-06.
 Requested convergence on             energy=1.00D-06.
 No special actions if energy rises.

 Cycle   1  Pass 1  IDiag  1:
 E= -191.413464134545    
 DIIS: error= 3.56D-02 at cycle   1 NSaved=   1.
 NSaved= 1 IEnMin= 1 EnMin= -191.413464134545     IErMin= 1 ErrMin= 3.56D-02
 ErrMax= 3.56D-02  0.00D+00 EMaxC= 1.00D-01 BMatC= 8.66D-01 BMatP= 8.66D-01
 IDIUse=3 WtCom= 6.44D-01 WtEn= 3.56D-01
 Coeff-Com:  0.100D+01
 Coeff-En:   0.100D+01
 Coeff:      0.100D+01
 Gap=     0.987 Goal=   None    Shift=    0.000
 Gap=     0.360 Goal=   None    Shift=    0.000
 GapD=    0.360 DampG=1.000 DampE=0.500 DampFc=0.5000 IDamp=-1.
 Damping current iteration by 5.00D-01
 RMSDP=5.90D-03 MaxDP=1.04D-01              OVMax= 1.27D-01

 Cycle   2  Pass 1  IDiag  1:
 E= -191.502376755863     Delta-E=       -0.088912621317 Rises=F Damp=T
 DIIS: error= 1.69D-02 at cycle   2 NSaved=   2.
 NSaved= 2 IEnMin= 2 EnMin= -191.502376755863     IErMin= 2 ErrMin= 1.69D-02
 ErrMax= 1.69D-02  0.00D+00 EMaxC= 1.00D-01 BMatC= 1.49D-01 BMatP= 8.66D-01
 IDIUse=3 WtCom= 8.31D-01 WtEn= 1.69D-01
 Coeff-Com: -0.422D+00 0.142D+01
 Coeff-En:   0.000D+00 0.100D+01
 Coeff:     -0.350D+00 0.135D+01
 Gap=     0.719 Goal=   None    Shift=    0.000
 Gap=     0.464 Goal=   None    Shift=    0.000
 RMSDP=2.34D-03 MaxDP=2.78D-02 DE=-8.89D-02 OVMax= 7.98D-02

 Cycle   3  Pass 1  IDiag  1:
 E= -191.590573175310     Delta-E=       -0.088196419447 Rises=F Damp=F
 DIIS: error= 5.52D-03 at cycle   3 NSaved=   3.
 NSaved= 3 IEnMin= 3 EnMin= -191.590573175310     IErMin= 3 ErrMin= 5.52D-03
 ErrMax= 5.52D-03  0.00D+00 EMaxC= 1.00D-01 BMatC= 1.10D-02 BMatP= 1.49D-01
 IDIUse=3 WtCom= 9.45D-01 WtEn= 5.52D-02
 Coeff-Com: -0.114D+00 0.167D+00 0.947D+00
 Coeff-En:   0.000D+00 0.000D+00 0.100D+01
 Coeff:     -0.108D+00 0.158D+00 0.950D+00
 Gap=     0.703 Goal=   None    Shift=    0.000
 Gap=     0.461 Goal=   None    Shift=    0.000
 RMSDP=6.37D-04 MaxDP=1.66D-02 DE=-8.82D-02 OVMax= 2.73D-02

 Cycle   4  Pass 1  IDiag  1:
 E= -191.595464943950     Delta-E=       -0.004891768640 Rises=F Damp=F
 DIIS: error= 2.85D-03 at cycle   4 NSaved=   4.
 NSaved= 4 IEnMin= 4 EnMin= -191.595464943950     IErMin= 4 ErrMin= 2.85D-03
 ErrMax= 2.85D-03  0.00D+00 EMaxC= 1.00D-01 BMatC= 1.69D-03 BMatP= 1.10D-02
 IDIUse=3 WtCom= 9.72D-01 WtEn= 2.85D-02
 Coeff-Com:  0.166D-01-0.712D-01 0.825D-02 0.105D+01
 Coeff-En:   0.000D+00 0.000D+00 0.000D+00 0.100D+01
 Coeff:      0.162D-01-0.692D-01 0.801D-02 0.105D+01
 Gap=     0.699 Goal=   None    Shift=    0.000
 Gap=     0.479 Goal=   None    Shift=    0.000
 RMSDP=3.10D-04 MaxDP=5.25D-03 DE=-4.89D-03 OVMax= 2.13D-02

 Cycle   5  Pass 1  IDiag  1:
 E= -191.596804111952     Delta-E=       -0.001339168002 Rises=F Damp=F
 DIIS: error= 1.54D-03 at cycle   5 NSaved=   5.
 NSaved= 5 IEnMin= 5 EnMin= -191.596804111952     IErMin= 5 ErrMin= 1.54D-03
 ErrMax= 1.54D-03  0.00D+00 EMaxC= 1.00D-01 BMatC= 3.95D-04 BMatP= 1.69D-03
 IDIUse=3 WtCom= 9.85D-01 WtEn= 1.54D-02
 Coeff-Com:  0.178D-01-0.140D-01-0.211D+00-0.192D+00 0.140D+01
 Coeff-En:   0.000D+00 0.000D+00 0.000D+00 0.000D+00 0.100D+01
 Coeff:      0.175D-01-0.138D-01-0.208D+00-0.189D+00 0.139D+01
 Gap=     0.700 Goal=   None    Shift=    0.000
 Gap=     0.489 Goal=   None    Shift=    0.000
 RMSDP=2.40D-04 MaxDP=5.32D-03 DE=-1.34D-03 OVMax= 1.62D-02

 Cycle   6  Pass 1  IDiag  1:
 E= -191.597232928172     Delta-E=       -0.000428816220 Rises=F Damp=F
 DIIS: error= 4.12D-04 at cycle   6 NSaved=   6.
 NSaved= 6 IEnMin= 6 EnMin= -191.597232928172     IErMin= 6 ErrMin= 4.12D-04
 ErrMax= 4.12D-04  0.00D+00 EMaxC= 1.00D-01 BMatC= 4.69D-05 BMatP= 3.95D-04
 IDIUse=3 WtCom= 9.96D-01 WtEn= 4.12D-03
 Coeff-Com: -0.573D-02 0.863D-02 0.691D-01-0.270D-01-0.393D+00 0.135D+01
 Coeff-En:   0.000D+00 0.000D+00 0.000D+00 0.000D+00 0.000D+00 0.100D+01
 Coeff:     -0.571D-02 0.860D-02 0.688D-01-0.269D-01-0.391D+00 0.135D+01
 Gap=     0.701 Goal=   None    Shift=    0.000
 Gap=     0.489 Goal=   None    Shift=    0.000
 RMSDP=7.56D-05 MaxDP=1.57D-03 DE=-4.29D-04 OVMax= 4.62D-03

 Cycle   7  Pass 1  IDiag  1:
 E= -191.597283009919     Delta-E=       -0.000050081747 Rises=F Damp=F
 DIIS: error= 2.38D-04 at cycle   7 NSaved=   7.
 NSaved= 7 IEnMin= 7 EnMin= -191.597283009919     IErMin= 7 ErrMin= 2.38D-04
 ErrMax= 2.38D-04  0.00D+00 EMaxC= 1.00D-01 BMatC= 1.67D-05 BMatP= 4.69D-05
 IDIUse=3 WtCom= 9.98D-01 WtEn= 2.38D-03
 Coeff-Com: -0.349D-02 0.360D-02 0.269D-01 0.429D-01-0.224D+00-0.174D+00
 Coeff-Com:  0.133D+01
 Coeff-En:   0.000D+00 0.000D+00 0.000D+00 0.000D+00 0.000D+00 0.000D+00
 Coeff-En:   0.100D+01
 Coeff:     -0.348D-02 0.359D-02 0.269D-01 0.428D-01-0.224D+00-0.173D+00
 Coeff:      0.133D+01
 Gap=     0.701 Goal=   None    Shift=    0.000
 Gap=     0.489 Goal=   None    Shift=    0.000
 RMSDP=5.43D-05 MaxDP=1.20D-03 DE=-5.01D-05 OVMax= 3.57D-03

 Cycle   8  Pass 1  IDiag  1:
 E= -191.597306005825     Delta-E=       -0.000022995906 Rises=F Damp=F
 DIIS: error= 1.70D-04 at cycle   8 NSaved=   8.
 NSaved= 8 IEnMin= 8 EnMin= -191.597306005825     IErMin= 8 ErrMin= 1.70D-04
 ErrMax= 1.70D-04  0.00D+00 EMaxC= 1.00D-01 BMatC= 6.92D-06 BMatP= 1.67D-05
 IDIUse=3 WtCom= 9.98D-01 WtEn= 1.70D-03
 Coeff-Com:  0.248D-02-0.320D-02-0.298D-01-0.576D-02 0.181D+00-0.318D+00
 Coeff-Com: -0.513D+00 0.169D+01
 Coeff-En:   0.000D+00 0.000D+00 0.000D+00 0.000D+00 0.000D+00 0.000D+00
 Coeff-En:   0.000D+00 0.100D+01
 Coeff:      0.248D-02-0.320D-02-0.297D-01-0.575D-02 0.181D+00-0.318D+00
 Coeff:     -0.512D+00 0.169D+01
 Gap=     0.701 Goal=   None    Shift=    0.000
 Gap=     0.489 Goal=   None    Shift=    0.000
 RMSDP=4.95D-05 MaxDP=1.23D-03 DE=-2.30D-05 OVMax= 3.51D-03

 Cycle   9  Pass 1  IDiag  1:
 E= -191.597320293564     Delta-E=       -0.000014287738 Rises=F Damp=F
 DIIS: error= 1.33D-04 at cycle   9 NSaved=   9.
 NSaved= 9 IEnMin= 9 EnMin= -191.597320293564     IErMin= 9 ErrMin= 1.33D-04
 ErrMax= 1.33D-04  0.00D+00 EMaxC= 1.00D-01 BMatC= 2.86D-06 BMatP= 6.92D-06
 IDIUse=3 WtCom= 9.99D-01 WtEn= 1.33D-03
 Coeff-Com:  0.778D-03-0.105D-02 0.306D-02-0.131D-01 0.225D-01 0.186D+00
 Coeff-Com: -0.365D+00-0.519D+00 0.169D+01
 Coeff-En:   0.000D+00 0.000D+00 0.000D+00 0.000D+00 0.000D+00 0.000D+00
 Coeff-En:   0.000D+00 0.000D+00 0.100D+01
 Coeff:      0.777D-03-0.105D-02 0.306D-02-0.131D-01 0.225D-01 0.185D+00
 Coeff:     -0.364D+00-0.518D+00 0.168D+01
 Gap=     0.701 Goal=   None    Shift=    0.000
 Gap=     0.489 Goal=   None    Shift=    0.000
 RMSDP=3.74D-05 MaxDP=1.07D-03 DE=-1.43D-05 OVMax= 2.77D-03

 Cycle  10  Pass 1  IDiag  1:
 E= -191.597327616155     Delta-E=       -0.000007322592 Rises=F Damp=F
 DIIS: error= 8.77D-05 at cycle  10 NSaved=  10.
 NSaved=10 IEnMin=10 EnMin= -191.597327616155     IErMin=10 ErrMin= 8.77D-05
 ErrMax= 8.77D-05  0.00D+00 EMaxC= 1.00D-01 BMatC= 1.25D-06 BMatP= 2.86D-06
 IDIUse=1 WtCom= 1.00D+00 WtEn= 0.00D+00
 Coeff-Com: -0.166D-02 0.225D-02 0.120D-01 0.117D-01-0.999D-01 0.451D-01
 Coeff-Com:  0.419D+00-0.358D+00-0.103D+01 0.200D+01
 Coeff:     -0.166D-02 0.225D-02 0.120D-01 0.117D-01-0.999D-01 0.451D-01
 Coeff:      0.419D+00-0.358D+00-0.103D+01 0.200D+01
 Gap=     0.701 Goal=   None    Shift=    0.000
 Gap=     0.489 Goal=   None    Shift=    0.000
 RMSDP=2.92D-05 MaxDP=8.38D-04 DE=-7.32D-06 OVMax= 2.29D-03

 Cycle  11  Pass 1  IDiag  1:
 E= -191.597331453472     Delta-E=       -0.000003837317 Rises=F Damp=F
 DIIS: error= 5.16D-05 at cycle  11 NSaved=  11.
 NSaved=11 IEnMin=11 EnMin= -191.597331453472     IErMin=11 ErrMin= 5.16D-05
 ErrMax= 5.16D-05  0.00D+00 EMaxC= 1.00D-01 BMatC= 5.07D-07 BMatP= 1.25D-06
 IDIUse=1 WtCom= 1.00D+00 WtEn= 0.00D+00
 Coeff-Com:  0.243D-04 0.324D-04-0.572D-02 0.170D-02 0.215D-01-0.810D-01
 Coeff-Com: -0.179D-01 0.374D+00-0.330D+00-0.949D+00 0.199D+01
 Coeff:      0.243D-04 0.324D-04-0.572D-02 0.170D-02 0.215D-01-0.810D-01
 Coeff:     -0.179D-01 0.374D+00-0.330D+00-0.949D+00 0.199D+01
 Gap=     0.701 Goal=   None    Shift=    0.000
 Gap=     0.489 Goal=   None    Shift=    0.000
 RMSDP=2.57D-05 MaxDP=6.87D-04 DE=-3.84D-06 OVMax= 2.09D-03

 Cycle  12  Pass 1  IDiag  1:
 E= -191.597333326585     Delta-E=       -0.000001873112 Rises=F Damp=F
 DIIS: error= 1.98D-05 at cycle  12 NSaved=  12.
 NSaved=12 IEnMin=12 EnMin= -191.597333326585     IErMin=12 ErrMin= 1.98D-05
 ErrMax= 1.98D-05  0.00D+00 EMaxC= 1.00D-01 BMatC= 1.17D-07 BMatP= 5.07D-07
 IDIUse=1 WtCom= 1.00D+00 WtEn= 0.00D+00
 Coeff-Com:  0.523D-03-0.767D-03-0.193D-02-0.411D-02 0.291D-01 0.359D-02
 Coeff-Com: -0.149D+00 0.455D-01 0.460D+00-0.676D+00-0.173D+00 0.147D+01
 Coeff:      0.523D-03-0.767D-03-0.193D-02-0.411D-02 0.291D-01 0.359D-02
 Coeff:     -0.149D+00 0.455D-01 0.460D+00-0.676D+00-0.173D+00 0.147D+01
 Gap=     0.701 Goal=   None    Shift=    0.000
 Gap=     0.489 Goal=   None    Shift=    0.000
 RMSDP=1.37D-05 MaxDP=3.69D-04 DE=-1.87D-06 OVMax= 1.13D-03

 Cycle  13  Pass 1  IDiag  1:
 E= -191.597333721735     Delta-E=       -0.000000395150 Rises=F Damp=F
 DIIS: error= 9.01D-06 at cycle  13 NSaved=  13.
 NSaved=13 IEnMin=13 EnMin= -191.597333721735     IErMin=13 ErrMin= 9.01D-06
 ErrMax= 9.01D-06  0.00D+00 EMaxC= 1.00D-01 BMatC= 1.82D-08 BMatP= 1.17D-07
 IDIUse=1 WtCom= 1.00D+00 WtEn= 0.00D+00
 Coeff-Com: -0.474D-04 0.304D-04 0.140D-02 0.203D-03-0.675D-02 0.126D-01
 Coeff-Com:  0.192D-01-0.711D-01 0.967D-02 0.217D+00-0.306D+00-0.162D+00
 Coeff-Com:  0.129D+01
 Coeff:     -0.474D-04 0.304D-04 0.140D-02 0.203D-03-0.675D-02 0.126D-01
 Coeff:      0.192D-01-0.711D-01 0.967D-02 0.217D+00-0.306D+00-0.162D+00
 Coeff:      0.129D+01
 Gap=     0.701 Goal=   None    Shift=    0.000
 Gap=     0.489 Goal=   None    Shift=    0.000
 RMSDP=4.01D-06 MaxDP=1.18D-04 DE=-3.95D-07 OVMax= 3.42D-04

 Cycle  14  Pass 1  IDiag  1:
 E= -191.597333763216     Delta-E=       -0.000000041481 Rises=F Damp=F
 DIIS: error= 7.20D-06 at cycle  14 NSaved=  14.
 NSaved=14 IEnMin=14 EnMin= -191.597333763216     IErMin=14 ErrMin= 7.20D-06
 ErrMax= 7.20D-06  0.00D+00 EMaxC= 1.00D-01 BMatC= 5.21D-09 BMatP= 1.82D-08
 IDIUse=1 WtCom= 1.00D+00 WtEn= 0.00D+00
 Coeff-Com: -0.108D-03 0.202D-03-0.445D-03 0.773D-03-0.308D-02-0.652D-02
 Coeff-Com:  0.225D-01 0.257D-01-0.106D+00 0.486D-01 0.188D+00-0.257D+00
 Coeff-Com: -0.715D+00 0.180D+01
 Coeff:     -0.108D-03 0.202D-03-0.445D-03 0.773D-03-0.308D-02-0.652D-02
 Coeff:      0.225D-01 0.257D-01-0.106D+00 0.486D-01 0.188D+00-0.257D+00
 Coeff:     -0.715D+00 0.180D+01
 Gap=     0.701 Goal=   None    Shift=    0.000
 Gap=     0.489 Goal=   None    Shift=    0.000
 RMSDP=1.77D-06 MaxDP=5.93D-05 DE=-4.15D-08 OVMax= 1.40D-04

 Cycle  15  Pass 1  IDiag  1:
 E= -191.597333773729     Delta-E=       -0.000000010513 Rises=F Damp=F
 DIIS: error= 4.72D-06 at cycle  15 NSaved=  15.
 NSaved=15 IEnMin=15 EnMin= -191.597333773729     IErMin=15 ErrMin= 4.72D-06
 ErrMax= 4.72D-06  0.00D+00 EMaxC= 1.00D-01 BMatC= 1.31D-09 BMatP= 5.21D-09
 IDIUse=1 WtCom= 1.00D+00 WtEn= 0.00D+00
 Coeff-Com:  0.813D-04-0.142D-03 0.221D-04-0.555D-03 0.361D-02 0.192D-02
 Coeff-Com: -0.185D-01-0.415D-02 0.698D-01-0.761D-01-0.630D-01 0.201D+00
 Coeff-Com:  0.228D+00-0.120D+01 0.186D+01
 Coeff:      0.813D-04-0.142D-03 0.221D-04-0.555D-03 0.361D-02 0.192D-02
 Coeff:     -0.185D-01-0.415D-02 0.698D-01-0.761D-01-0.630D-01 0.201D+00
 Coeff:      0.228D+00-0.120D+01 0.186D+01
 Gap=     0.701 Goal=   None    Shift=    0.000
 Gap=     0.489 Goal=   None    Shift=    0.000
 RMSDP=7.07D-07 MaxDP=2.60D-05 DE=-1.05D-08 OVMax= 5.47D-05

 Cycle  16  Pass 1  IDiag  1:
 E= -191.597333776584     Delta-E=       -0.000000002856 Rises=F Damp=F
 DIIS: error= 2.79D-06 at cycle  16 NSaved=  16.
 NSaved=16 IEnMin=16 EnMin= -191.597333776584     IErMin=16 ErrMin= 2.79D-06
 ErrMax= 2.79D-06  0.00D+00 EMaxC= 1.00D-01 BMatC= 4.66D-10 BMatP= 1.31D-09
 IDIUse=1 WtCom= 1.00D+00 WtEn= 0.00D+00
 Coeff-Com: -0.553D-04 0.936D-04 0.103D-03 0.281D-03-0.267D-02-0.494D-03
 Coeff-Com:  0.118D-01-0.808D-03-0.406D-01 0.588D-01 0.155D-01-0.127D+00
 Coeff-Com: -0.481D-01 0.743D+00-0.203D+01 0.242D+01
 Coeff:     -0.553D-04 0.936D-04 0.103D-03 0.281D-03-0.267D-02-0.494D-03
 Coeff:      0.118D-01-0.808D-03-0.406D-01 0.588D-01 0.155D-01-0.127D+00
 Coeff:     -0.481D-01 0.743D+00-0.203D+01 0.242D+01
 Gap=     0.701 Goal=   None    Shift=    0.000
 Gap=     0.489 Goal=   None    Shift=    0.000
 RMSDP=5.59D-07 MaxDP=2.04D-05 DE=-2.86D-09 OVMax= 4.95D-05

 Cycle  17  Pass 1  IDiag  1:
 E= -191.597333777894     Delta-E=       -0.000000001310 Rises=F Damp=F
 DIIS: error= 1.09D-06 at cycle  17 NSaved=  17.
 NSaved=17 IEnMin=17 EnMin= -191.597333777894     IErMin=17 ErrMin= 1.09D-06
 ErrMax= 1.09D-06  0.00D+00 EMaxC= 1.00D-01 BMatC= 9.29D-11 BMatP= 4.66D-10
 IDIUse=1 WtCom= 1.00D+00 WtEn= 0.00D+00
 Coeff-Com:  0.617D-05-0.802D-05-0.784D-04 0.125D-05 0.434D-03-0.111D-03
 Coeff-Com: -0.132D-02 0.942D-03 0.376D-02-0.114D-01 0.910D-02 0.140D-01
 Coeff-Com: -0.374D-01-0.645D-01 0.587D+00-0.140D+01 0.189D+01
 Coeff:      0.617D-05-0.802D-05-0.784D-04 0.125D-05 0.434D-03-0.111D-03
 Coeff:     -0.132D-02 0.942D-03 0.376D-02-0.114D-01 0.910D-02 0.140D-01
 Coeff:     -0.374D-01-0.645D-01 0.587D+00-0.140D+01 0.189D+01
 Gap=     0.701 Goal=   None    Shift=    0.000
 Gap=     0.489 Goal=   None    Shift=    0.000
 RMSDP=2.86D-07 MaxDP=1.04D-05 DE=-1.31D-09 OVMax= 2.49D-05

 Cycle  18  Pass 1  IDiag  1:
 E= -191.597333778140     Delta-E=       -0.000000000246 Rises=F Damp=F
 DIIS: error= 2.46D-07 at cycle  18 NSaved=  18.
 NSaved=18 IEnMin=18 EnMin= -191.597333778140     IErMin=18 ErrMin= 2.46D-07
 ErrMax= 2.46D-07  0.00D+00 EMaxC= 1.00D-01 BMatC= 1.09D-11 BMatP= 9.29D-11
 IDIUse=1 WtCom= 1.00D+00 WtEn= 0.00D+00
 Coeff-Com:  0.556D-05-0.110D-04 0.259D-04-0.386D-04 0.171D-03 0.424D-04
 Coeff-Com: -0.945D-03-0.875D-04 0.326D-02-0.278D-02-0.495D-02 0.846D-02
 Coeff-Com:  0.271D-01-0.707D-01-0.222D-01 0.385D+00-0.972D+00 0.165D+01
 Coeff:      0.556D-05-0.110D-04 0.259D-04-0.386D-04 0.171D-03 0.424D-04
 Coeff:     -0.945D-03-0.875D-04 0.326D-02-0.278D-02-0.495D-02 0.846D-02
 Coeff:      0.271D-01-0.707D-01-0.222D-01 0.385D+00-0.972D+00 0.165D+01
 Gap=     0.701 Goal=   None    Shift=    0.000
 Gap=     0.489 Goal=   None    Shift=    0.000
 RMSDP=6.89D-08 MaxDP=2.35D-06 DE=-2.46D-10 OVMax= 4.82D-06

 Cycle  19  Pass 1  IDiag  1:
 E= -191.597333778157     Delta-E=       -0.000000000017 Rises=F Damp=F
 DIIS: error= 9.18D-08 at cycle  19 NSaved=  19.
 NSaved=19 IEnMin=19 EnMin= -191.597333778157     IErMin=19 ErrMin= 9.18D-08
 ErrMax= 9.18D-08  0.00D+00 EMaxC= 1.00D-01 BMatC= 1.76D-12 BMatP= 1.09D-11
 IDIUse=1 WtCom= 1.00D+00 WtEn= 0.00D+00
 Coeff-Com: -0.395D-05 0.733D-05-0.412D-05 0.163D-04-0.137D-03-0.287D-04
 Coeff-Com:  0.645D-03-0.347D-04-0.211D-02 0.282D-02 0.947D-03-0.564D-02
 Coeff-Com: -0.827D-02 0.421D-01-0.670D-01-0.759D-02 0.259D+00-0.940D+00
 Coeff-Com:  0.172D+01
 Coeff:     -0.395D-05 0.733D-05-0.412D-05 0.163D-04-0.137D-03-0.287D-04
 Coeff:      0.645D-03-0.347D-04-0.211D-02 0.282D-02 0.947D-03-0.564D-02
 Coeff:     -0.827D-02 0.421D-01-0.670D-01-0.759D-02 0.259D+00-0.940D+00
 Coeff:      0.172D+01
 Gap=     0.701 Goal=   None    Shift=    0.000
 Gap=     0.489 Goal=   None    Shift=    0.000
 RMSDP=2.79D-08 MaxDP=8.31D-07 DE=-1.68D-11 OVMax= 1.63D-06

 Cycle  20  Pass 1  IDiag  1:
 E= -191.597333778161     Delta-E=       -0.000000000004 Rises=F Damp=F
 DIIS: error= 2.08D-08 at cycle  20 NSaved=  20.
 NSaved=20 IEnMin=20 EnMin= -191.597333778161     IErMin=20 ErrMin= 2.08D-08
 ErrMax= 2.08D-08  0.00D+00 EMaxC= 1.00D-01 BMatC= 2.86D-13 BMatP= 1.76D-12
 IDIUse=1 WtCom= 1.00D+00 WtEn= 0.00D+00
 Coeff-Com:  0.151D-05-0.281D-05 0.121D-05-0.398D-05 0.509D-04 0.326D-04
 Coeff-Com: -0.227D-03-0.881D-04 0.846D-03-0.102D-02-0.392D-03 0.242D-02
 Coeff-Com:  0.263D-02-0.175D-01 0.424D-01-0.421D-01-0.386D-01 0.373D+00
 Coeff-Com: -0.110D+01 0.178D+01
 Coeff:      0.151D-05-0.281D-05 0.121D-05-0.398D-05 0.509D-04 0.326D-04
 Coeff:     -0.227D-03-0.881D-04 0.846D-03-0.102D-02-0.392D-03 0.242D-02
 Coeff:      0.263D-02-0.175D-01 0.424D-01-0.421D-01-0.386D-01 0.373D+00
 Coeff:     -0.110D+01 0.178D+01
 Gap=     0.701 Goal=   None    Shift=    0.000
 Gap=     0.489 Goal=   None    Shift=    0.000
 RMSDP=1.02D-08 MaxDP=2.52D-07 DE=-4.15D-12 OVMax= 4.26D-07

 Cycle  21  Pass 1  IDiag  1:
 E= -191.597333778162     Delta-E=       -0.000000000001 Rises=F Damp=F
 DIIS: error= 8.77D-09 at cycle  21 NSaved=  20.
 NSaved=20 IEnMin=20 EnMin= -191.597333778162     IErMin=20 ErrMin= 8.77D-09
 ErrMax= 8.77D-09  0.00D+00 EMaxC= 1.00D-01 BMatC= 5.16D-14 BMatP= 2.86D-13
 IDIUse=1 WtCom= 1.00D+00 WtEn= 0.00D+00
 Coeff-Com:  0.539D-07-0.281D-06-0.194D-05 0.230D-05-0.164D-04-0.203D-04
 Coeff-Com:  0.815D-04-0.215D-04-0.573D-04 0.112D-04-0.133D-03 0.141D-03
 Coeff-Com:  0.117D-02-0.104D-01 0.255D-01-0.266D-01-0.528D-01 0.371D+00
 Coeff-Com: -0.116D+01 0.185D+01
 Coeff:      0.539D-07-0.281D-06-0.194D-05 0.230D-05-0.164D-04-0.203D-04
 Coeff:      0.815D-04-0.215D-04-0.573D-04 0.112D-04-0.133D-03 0.141D-03
 Coeff:      0.117D-02-0.104D-01 0.255D-01-0.266D-01-0.528D-01 0.371D+00
 Coeff:     -0.116D+01 0.185D+01
 Gap=     0.701 Goal=   None    Shift=    0.000
 Gap=     0.489 Goal=   None    Shift=    0.000
 RMSDP=4.83D-09 MaxDP=1.17D-07 DE=-6.25D-13 OVMax= 1.99D-07

 SCF Done:  E(UHF) =  -191.597333778     A.U. after   21 cycles
            NFock= 21  Conv=0.48D-08     -V/T= 1.9999
 <Sx>= 0.0000 <Sy>= 0.0000 <Sz>= 0.5000 <S**2>= 0.7621 S= 0.5060
 <L.S>= 0.000000000000E+00
 KE= 1.916202283106D+02 PE=-6.900602797417D+02 EE= 1.820541829823D+02
 Annihilation of the first spin contaminant:
 S**2 before annihilation     0.7621,   after     0.7501
 Leave Link  502 at Thu Oct  1 15:39:36 2015, MaxMem=    33554432 cpu:               1.5 elap:               1.5
 (Enter /home/gauss/gdvi03p/gdv/l601.exe)
 Copying SCF densities to generalized density rwf, IOpCl= 1 IROHF=0.

 **********************************************************************

            Population analysis using the SCF density.

 **********************************************************************

 Alpha  occ. eigenvalues --  -21.01490 -11.56128 -11.55916 -11.44436  -1.83432
 Alpha  occ. eigenvalues --   -1.28498  -1.20434  -1.10936  -1.06186  -0.96280
 Alpha  occ. eigenvalues --   -0.90657  -0.83985  -0.80227  -0.77574  -0.75000
 Alpha  occ. eigenvalues --   -0.71095
 Alpha virt. eigenvalues --   -0.01038   0.00514   0.01660   0.02443   0.03693
 Alpha virt. eigenvalues --    0.07297   0.08987   0.09623   0.17426   0.24332
 Alpha virt. eigenvalues --    0.33844   0.37076   0.43568   0.45340   0.49145
 Alpha virt. eigenvalues --    0.50095   0.54140   0.56664   0.61090   0.63744
 Alpha virt. eigenvalues --    0.65123   0.67604   0.68308   0.72800   0.74601
 Alpha virt. eigenvalues --    0.77254   0.83873   0.84720   0.96340   1.03722
 Alpha virt. eigenvalues --    1.08907   1.12117   1.23728   1.25423   1.29289
 Alpha virt. eigenvalues --    1.41193   1.47014   1.48639   1.50898   1.53011
 Alpha virt. eigenvalues --    1.57787   1.65192   1.66979   1.68633   1.69310
 Alpha virt. eigenvalues --    1.72213   1.78106   1.79137   1.81573   1.82605
 Alpha virt. eigenvalues --    1.91817   1.95070   2.00993   2.10938   2.15893
 Alpha virt. eigenvalues --    2.26219   2.30419   2.33770   2.37234   2.56108
 Alpha virt. eigenvalues --    2.57844   2.59186   2.66046   2.70797   2.79109
 Alpha virt. eigenvalues --    2.80107   2.98184   3.02160   3.18957   3.29253
  Beta  occ. eigenvalues --  -20.96953 -11.56310 -11.56113 -11.44320  -1.71244
  Beta  occ. eigenvalues --   -1.25228  -1.18264  -1.08198  -0.95549  -0.90727
  Beta  occ. eigenvalues --   -0.86419  -0.79705  -0.76757  -0.74529  -0.70580
  Beta virt. eigenvalues --   -0.21698  -0.00649   0.01409   0.02061   0.03588
  Beta virt. eigenvalues --    0.04170   0.07705   0.09043   0.10090   0.17758
  Beta virt. eigenvalues --    0.24425   0.34222   0.38285   0.44514   0.46147
  Beta virt. eigenvalues --    0.49647   0.50965   0.54414   0.57166   0.61444
  Beta virt. eigenvalues --    0.63963   0.65359   0.67873   0.68700   0.73181
  Beta virt. eigenvalues --    0.75967   0.77727   0.85364   0.89454   0.97696
  Beta virt. eigenvalues --    1.08331   1.12036   1.14107   1.24354   1.26039
  Beta virt. eigenvalues --    1.29835   1.41426   1.48137   1.48681   1.52168
  Beta virt. eigenvalues --    1.53942   1.58695   1.65626   1.67887   1.69173
  Beta virt. eigenvalues --    1.70179   1.72573   1.78410   1.79761   1.82126
  Beta virt. eigenvalues --    1.83574   1.92727   1.95417   2.01460   2.11107
  Beta virt. eigenvalues --    2.16836   2.26661   2.31418   2.34138   2.37601
  Beta virt. eigenvalues --    2.56252   2.58781   2.60013   2.66803   2.71818
  Beta virt. eigenvalues --    2.82541   2.86262   3.04016   3.10884   3.25556
  Beta virt. eigenvalues --    3.31413
          Condensed to atoms (all electrons):
               1          2          3          4          5          6
     1  C    4.921423   0.351207   0.384116   0.102030   0.412841  -0.018600
     2  C    0.351207   4.596515  -0.059153   0.149973  -0.022111   0.408318
     3  C    0.384116  -0.059153   4.459612  -0.012184  -0.009886   0.001895
     4  O    0.102030   0.149973  -0.012184   7.711870  -0.009051  -0.004728
     5  H    0.412841  -0.022111  -0.009886  -0.009051   0.473143  -0.002770
     6  H   -0.018600   0.408318   0.001895  -0.004728  -0.002770   0.451553
     7  H   -0.021023   0.410400  -0.000902  -0.005446   0.001955  -0.010165
     8  H   -0.023293   0.004959   0.407875  -0.001018  -0.003320  -0.000109
     9  H   -0.022796  -0.001340   0.408714   0.001804  -0.002785   0.000010
    10  H   -0.027768  -0.003572   0.414157  -0.001479   0.004226   0.000129
               7          8          9         10
     1  C   -0.021023  -0.023293  -0.022796  -0.027768
     2  C    0.410400   0.004959  -0.001340  -0.003572
     3  C   -0.000902   0.407875   0.408714   0.414157
     4  O   -0.005446  -0.001018   0.001804  -0.001479
     5  H    0.001955  -0.003320  -0.002785   0.004226
     6  H   -0.010165  -0.000109   0.000010   0.000129
     7  H    0.454597   0.000040   0.000210   0.002203
     8  H    0.000040   0.528235  -0.009645  -0.017515
     9  H    0.000210  -0.009645   0.514651  -0.013682
    10  H    0.002203  -0.017515  -0.013682   0.562955
          Atomic-Atomic Spin Densities.
               1          2          3          4          5          6
     1  C   -0.065605   0.018005   0.015548  -0.057919   0.006591   0.000411
     2  C    0.018005  -0.074169  -0.000009  -0.047596   0.000811   0.007783
     3  C    0.015548  -0.000009   0.026347  -0.001727  -0.002606  -0.000064
     4  O   -0.057919  -0.047596  -0.001727   1.151771  -0.002858  -0.003164
     5  H    0.006591   0.000811  -0.002606  -0.002858   0.030780   0.000572
     6  H    0.000411   0.007783  -0.000064  -0.003164   0.000572   0.031824
     7  H    0.001988   0.007157   0.000312  -0.003573  -0.000096  -0.003129
     8  H    0.001716  -0.000017  -0.000994  -0.000011  -0.000180  -0.000004
     9  H   -0.000197  -0.000120  -0.001076   0.000136   0.000623   0.000034
    10  H   -0.000577  -0.000540  -0.001428   0.001699   0.000178   0.000056
               7          8          9         10
     1  C    0.001988   0.001716  -0.000197  -0.000577
     2  C    0.007157  -0.000017  -0.000120  -0.000540
     3  C    0.000312  -0.000994  -0.001076  -0.001428
     4  O   -0.003573  -0.000011   0.000136   0.001699
     5  H   -0.000096  -0.000180   0.000623   0.000178
     6  H   -0.003129  -0.000004   0.000034   0.000056
     7  H    0.029733   0.000000  -0.000138  -0.000424
     8  H    0.000000  -0.003283  -0.000007  -0.000151
     9  H   -0.000138  -0.000007   0.001907   0.001090
    10  H   -0.000424  -0.000151   0.001090  -0.001511
 Mulliken charges and spin densities:
               1          2
     1  C   -0.058137  -0.080040
     2  C    0.164804  -0.088694
     3  C    0.005754   0.034302
     4  O    0.068227   1.036756
     5  H    0.157756   0.033815
     6  H    0.174466   0.034319
     7  H    0.168131   0.031831
     8  H    0.113791  -0.002932
     9  H    0.124861   0.002252
    10  H    0.080347  -0.001608
 Sum of Mulliken charges =   1.00000   1.00000
 Mulliken charges and spin densities with hydrogens summed into heavy atoms:
               1          2
     1  C    0.099619  -0.046226
     2  C    0.507401  -0.022544
     3  C    0.324753   0.032014
     4  O    0.068227   1.036756
 Electronic spatial extent (au):  <R**2>=            252.3368
 Charge=              1.0000 electrons
 Dipole moment (field-independent basis, Debye):
    X=             -0.9684    Y=              1.3268    Z=              0.7757  Tot=              1.8165
 Quadrupole moment (field-independent basis, Debye-Ang):
   XX=            -14.8825   YY=            -20.5858   ZZ=            -19.2484
   XY=             -1.9808   XZ=             -0.3300   YZ=             -1.0202
 Traceless Quadrupole moment (field-independent basis, Debye-Ang):
   XX=              3.3564   YY=             -2.3469   ZZ=             -1.0095
   XY=             -1.9808   XZ=             -0.3300   YZ=             -1.0202
 Octapole moment (field-independent basis, Debye-Ang**2):
  XXX=             -3.2605  YYY=             -0.0072  ZZZ=              1.0557  XYY=             -2.3603
  XXY=              3.2362  XXZ=              1.7227  XZZ=             -1.9179  YZZ=              0.2411
  YYZ=             -0.4741  XYZ=              0.5431
 Hexadecapole moment (field-independent basis, Debye-Ang**3):
 XXXX=           -169.0995 YYYY=            -59.7861 ZZZZ=            -39.2135 XXXY=             -2.7493
 XXXZ=             -3.0134 YYYX=             -1.8010 YYYZ=             -1.1018 ZZZX=              0.7471
 ZZZY=             -2.2095 XXYY=            -35.4374 XXZZ=            -38.1942 YYZZ=            -16.6624
 XXYZ=              1.9598 YYXZ=              1.0094 ZZXY=             -0.3995
 N-N= 1.247885346707D+02 E-N=-6.900602796786D+02  KE= 1.916202283106D+02
                          Isotropic Fermi Contact Couplings
        Atom                 a.u.       MegaHertz       Gauss      10(-4) cm-1
     1  C(13)             -0.02884     -32.42128     -11.56872     -10.81457
     2  C(13)             -0.02906     -32.67000     -11.65747     -10.89754
     3  C(13)              0.01502      16.89046       6.02694       5.63405
     4  O(17)              0.32294    -195.76297     -69.85310     -65.29950
     5  H(1)               0.01606      71.77950      25.61271      23.94306
     6  H(1)               0.01588      70.96975      25.32377      23.67296
     7  H(1)               0.01495      66.80258      23.83682      22.28294
     8  H(1)              -0.00119      -5.30841      -1.89417      -1.77069
     9  H(1)               0.00056       2.49325       0.88965       0.83166
    10  H(1)              -0.00101      -4.51500      -1.61106      -1.50604
 --------------------------------------------------------
       Center         ----  Spin Dipole Couplings  ----
                      3XX-RR        3YY-RR        3ZZ-RR
 --------------------------------------------------------
     1   Atom        0.034892     -0.045552      0.010660
     2   Atom       -0.004880      0.015804     -0.010923
     3   Atom        0.048599     -0.024501     -0.024098
     4   Atom       -0.398322     -1.685642      2.083964
     5   Atom       -0.001405     -0.008899      0.010304
     6   Atom       -0.003069      0.011065     -0.007996
     7   Atom       -0.010198      0.018266     -0.008068
     8   Atom        0.011235     -0.003999     -0.007237
     9   Atom        0.003226      0.000107     -0.003334
    10   Atom        0.007872     -0.005619     -0.002253
 --------------------------------------------------------
                        XY            XZ            YZ
 --------------------------------------------------------
     1   Atom        0.012282      0.015035     -0.008739
     2   Atom       -0.036837     -0.018758     -0.021689
     3   Atom        0.019377     -0.015638     -0.003868
     4   Atom        0.504461     -2.373197     -0.933703
     5   Atom        0.004441      0.014944      0.006661
     6   Atom       -0.013363     -0.004321      0.008432
     7   Atom       -0.004762      0.002641     -0.009278
     8   Atom       -0.002648      0.001394     -0.000313
     9   Atom        0.005784      0.002046      0.003073
    10   Atom        0.008182     -0.006393     -0.004003
 --------------------------------------------------------


 ---------------------------------------------------------------------------------
              Anisotropic Spin Dipole Couplings in Principal Axis System
 ---------------------------------------------------------------------------------

       Atom             a.u.   MegaHertz   Gauss  10(-4) cm-1        Axes

              Baa    -0.0494    -6.632    -2.366    -2.212 -0.1738  0.9674  0.1842
     1 C(13)  Bbb     0.0067     0.899     0.321     0.300 -0.3743 -0.2379  0.8963
              Bcc     0.0427     5.733     2.046     1.912  0.9109  0.0868  0.4035
 
              Baa    -0.0521    -6.990    -2.494    -2.331  0.6350  0.5255  0.5662
     2 C(13)  Bbb     0.0076     1.017     0.363     0.339 -0.5316 -0.2346  0.8139
              Bcc     0.0445     5.972     2.131     1.992 -0.5605  0.8178 -0.1303
 
              Baa    -0.0293    -3.934    -1.404    -1.312 -0.2431  0.9699 -0.0096
     3 C(13)  Bbb    -0.0273    -3.665    -1.308    -1.223  0.1875  0.0567  0.9806
              Bcc     0.0566     7.599     2.712     2.535  0.9517  0.2366 -0.1957
 
              Baa    -1.9230   139.147    49.651    46.414  0.3455  0.8478  0.4022
     4 O(17)  Bbb    -1.8055   130.646    46.618    43.579  0.7898 -0.4942  0.3633
              Bcc     3.7285  -269.793   -96.269   -89.993 -0.5068 -0.1921  0.8404
 
              Baa    -0.0116    -6.195    -2.211    -2.066  0.8033  0.1182 -0.5837
     5 H(1)   Bbb    -0.0109    -5.830    -2.080    -1.945 -0.2387  0.9618 -0.1337
              Bcc     0.0225    12.025     4.291     4.011  0.5456  0.2468  0.8009
 
              Baa    -0.0117    -6.225    -2.221    -2.077 -0.5417 -0.5532  0.6329
     6 H(1)   Bbb    -0.0104    -5.559    -1.984    -1.854  0.6849  0.1459  0.7138
              Bcc     0.0221    11.784     4.205     3.931 -0.4872  0.8202  0.2999
 
              Baa    -0.0121    -6.461    -2.305    -2.155  0.7096 -0.1017 -0.6972
     7 H(1)   Bbb    -0.0100    -5.325    -1.900    -1.776  0.6854  0.3289  0.6496
              Bcc     0.0221    11.786     4.206     3.931 -0.1633  0.9389 -0.3031
 
              Baa    -0.0073    -3.919    -1.398    -1.307 -0.0693  0.0383  0.9969
     8 H(1)   Bbb    -0.0044    -2.371    -0.846    -0.791  0.1687  0.9853 -0.0261
              Bcc     0.0118     6.290     2.245     2.098  0.9832 -0.1664  0.0748
 
              Baa    -0.0055    -2.929    -1.045    -0.977  0.2835 -0.6699  0.6862
     9 H(1)   Bbb    -0.0032    -1.704    -0.608    -0.568 -0.6029  0.4319  0.6708
              Bcc     0.0087     4.632     1.653     1.545  0.7457  0.6039  0.2814
 
              Baa    -0.0096    -5.146    -1.836    -1.717 -0.3601  0.9146  0.1839
    10 H(1)   Bbb    -0.0053    -2.852    -1.017    -0.951  0.4393 -0.0077  0.8983
              Bcc     0.0150     7.998     2.854     2.668  0.8230  0.4042 -0.3990
 

 ---------------------------------------------------------------------------------

 No NMR shielding tensors so no spin-rotation constants.
 Leave Link  601 at Thu Oct  1 15:39:36 2015, MaxMem=    33554432 cpu:               0.3 elap:               0.3
 (Enter /home/gauss/gdvi03p/gdv/l9999.exe)
 Unable to Open any file for archive entry.
 1\1\GINC-MEDUSA\SP\UHF\CC-pVDZ\C3H6O1(1+,2)\PLESTRAN\01-Oct-2015\0\\#p
  uhf/cc-pVDZ nosymm\\S-Propylene Oxide cc-pVDZ\\1,2\C,0,0.152133,-0.03
 58,0.485797\C,0,-1.039475,0.615938,-0.061249\C,0,1.507144,0.097806,-0.
 14846\O,0,-0.828215,-0.788248,-0.239431\H,0,0.153725,-0.249258,1.55213
 6\H,0,-1.863178,0.881921,0.593333\H,0,-0.949807,1.21421,-0.962771\H,0,
 2.076806,-0.826189,-0.036671\H,0,2.074465,0.901788,0.325106\H,0,1.4148
 95,0.315852,-1.212218\\Version=ES64L-GDVRevI.03+\HF=-191.5973338\EFC=0
 .\S2=0.762059\S2-1=0.\S2A=0.750117\RMSD=4.830e-09\Dipole=-0.3809936,0.
 521985,0.3051879\Quadrupole=2.4953917,-1.744834,-0.7505577,-1.4726473,
 -0.2453234,-0.7585036\PG=C01 [X(C3H6O1)]\\@
 The archive entry for this job was punched.


 NO SCIENCE HAS EVER MADE MORE RAPID PROGRESS IN A
 SHORTER TIME THAN CHEMISTRY.
   -- MARTIN HEINRICH KLOPROTH, 1791
 (FIRST PROFESSOR OF CHEMISTRY AT THE UNIVERSITY OF BERLIN)
 Job cpu time:       0 days  0 hours  0 minutes  2.6 seconds.
 Elapsed time:       0 days  0 hours  0 minutes  2.5 seconds.
 File lengths (MBytes):  RWF=      9 Int=      0 D2E=      0 Chk=      2 Scr=      1
 Normal termination of Gaussian DV at Thu Oct  1 15:39:36 2015.
