 Entering Gaussian System, Link 0=gdv
 Input=propylene-oxide_sto3g.com
 Output=propylene-oxide_sto3g.log
 Initial command:
 /home/gauss/gdvi03p/gdv/l1.exe "/home/GauScr/Gau-8274.inp" -scrdir="/home/GauScr/"
 Entering Link 1 = /home/gauss/gdvi03p/gdv/l1.exe PID=      8275.
  
 Copyright (c) 1988,1990,1992,1993,1995,1998,2003,2009,2015,
            Gaussian, Inc.  All Rights Reserved.
  
 This is the private, development version of
 the Gaussian(R) DV system of programs. It is based on
 the Gaussian(R) 09 system (copyright 2009, Gaussian, Inc.),
 the Gaussian(R) 03 system (copyright 2003, Gaussian, Inc.),
 the Gaussian(R) 98 system (copyright 1998, Gaussian, Inc.),
 the Gaussian(R) 94 system (copyright 1995, Gaussian, Inc.),
 the Gaussian 92(TM) system (copyright 1992, Gaussian, Inc.),
 the Gaussian 90(TM) system (copyright 1990, Gaussian, Inc.),
 the Gaussian 88(TM) system (copyright 1988, Gaussian, Inc.),
 the Gaussian 86(TM) system (copyright 1986, Carnegie Mellon
 University), and the Gaussian 82(TM) system (copyright 1983,
 Carnegie Mellon University). Gaussian is a federally registered
 trademark of Gaussian, Inc.
  
 This software contains proprietary and confidential information,
 including trade secrets, belonging to Gaussian, Inc.
  
 This software is provided under written license and may be
 used, copied, transmitted, or stored only in accord with that
 written license.
  
 The following legend is applicable only to US Government
 contracts under FAR:
  
                    RESTRICTED RIGHTS LEGEND
  
 Use, reproduction and disclosure by the US Government is
 subject to restrictions as set forth in subparagraphs (a)
 and (c) of the Commercial Computer Software - Restricted
 Rights clause in FAR 52.227-19.
  
 Gaussian, Inc.
 340 Quinnipiac St., Bldg. 40, Wallingford CT 06492
  
  
 ---------------------------------------------------------------
 Warning -- This program may not be used in any manner that
 competes with the business of Gaussian, Inc. or will provide
 assistance to any competitor of Gaussian, Inc.  The licensee
 of this program is prohibited from giving any competitor of
 Gaussian, Inc. access to this program.  By using this program,
 the user acknowledges that Gaussian, Inc. is engaged in the
 business of creating and licensing software in the field of
 computational chemistry and represents and warrants to the
 licensee that it is not a competitor of Gaussian, Inc. and that
 it will not use this program in any manner prohibited above.
 ---------------------------------------------------------------
  

 Cite this work as:
 Gaussian Development Version, Revision I.03+,
 M. J. Frisch, G. W. Trucks, H. B. Schlegel, G. E. Scuseria, 
 M. A. Robb, J. R. Cheeseman, G. Scalmani, V. Barone, B. Mennucci, 
 G. A. Petersson, H. Nakatsuji, M. Caricato, X. Li, H. P. Hratchian, 
 J. Bloino, B. G. Janesko, A. F. Izmaylov, A. Marenich, F. Lipparini, 
 G. Zheng, J. L. Sonnenberg, W. Liang, M. Hada, M. Ehara, K. Toyota, 
 R. Fukuda, J. Hasegawa, M. Ishida, T. Nakajima, Y. Honda, O. Kitao, 
 H. Nakai, T. Vreven, K. Throssell, J. A. Montgomery, Jr., 
 J. E. Peralta, F. Ogliaro, M. Bearpark, J. J. Heyd, E. Brothers, 
 K. N. Kudin, V. N. Staroverov, T. Keith, R. Kobayashi, J. Normand, 
 K. Raghavachari, A. Rendell, J. C. Burant, S. S. Iyengar, J. Tomasi, 
 M. Cossi, N. Rega, J. M. Millam, M. Klene, J. E. Knox, J. B. Cross, 
 V. Bakken, C. Adamo, J. Jaramillo, R. Gomperts, R. E. Stratmann, 
 O. Yazyev, A. J. Austin, R. Cammi, C. Pomelli, J. W. Ochterski, 
 R. L. Martin, K. Morokuma, V. G. Zakrzewski, G. A. Voth, 
 P. Salvador, J. J. Dannenberg, S. Dapprich, P. V. Parandekar, 
 N. J. Mayhall, A. D. Daniels, O. Farkas, J. B. Foresman, 
 J. V. Ortiz, J. Cioslowski, and D. J. Fox, 
 Gaussian, Inc., Wallingford CT, 2014.
 
 *******************************************
 Gaussian DV:  ES64L-GDVRevI.03+  2-May-2015
                  1-Oct-2015 
 *******************************************
 --------------------
 #p uhf/sto-3g nosymm
 --------------------
 1/38=1,172=1/1;
 2/12=2,15=1,17=6,18=5,40=1/2;
 3/6=3,11=2,25=1,30=1,116=2/1,2,3;
 4//1;
 5/5=2,38=5/2;
 6/7=2,8=2,9=2,10=2,28=1/1;
 99/5=1,9=1/99;
 Leave Link    1 at Thu Oct  1 15:35:10 2015, MaxMem=           0 cpu:               0.0 elap:               0.1
 (Enter /home/gauss/gdvi03p/gdv/l101.exe)
 ------------------------
 S-Propylene Oxide STO-3G
 ------------------------
 Symbolic Z-matrix:
 Charge =  1 Multiplicity = 2
 C                     0.15213  -0.0358    0.4858 
 C                    -1.03947   0.61594  -0.06125 
 C                     1.50714   0.09781  -0.14846 
 O                    -0.82822  -0.78825  -0.23943 
 H                     0.15373  -0.24926   1.55214 
 H                    -1.86318   0.88192   0.59333 
 H                    -0.94981   1.21421  -0.96277 
 H                     2.07681  -0.82619  -0.03667 
 H                     2.07447   0.90179   0.32511 
 H                     1.4149    0.31585  -1.21222 
 
 ITRead=  0  0  0  0  0  0  0  0  0  0
 MicOpt= -1 -1 -1 -1 -1 -1 -1 -1 -1 -1
 NAtoms=     10 NQM=       10 NQMF=       0 NMMI=      0 NMMIF=      0
                NMic=       0 NMicF=      0.
                    Isotopes and Nuclear Properties:
 (Nuclear quadrupole moments (NQMom) in fm**2, nuclear magnetic moments (NMagM)
  in nuclear magnetons)

  Atom         1           2           3           4           5           6           7           8           9          10
 IAtWgt=          12          12          12          16           1           1           1           1           1           1
 AtmWgt=  12.0000000  12.0000000  12.0000000  15.9949146   1.0078250   1.0078250   1.0078250   1.0078250   1.0078250   1.0078250
 NucSpn=           0           0           0           0           1           1           1           1           1           1
 AtZEff=   0.0000000   0.0000000   0.0000000   0.0000000   0.0000000   0.0000000   0.0000000   0.0000000   0.0000000   0.0000000
 NQMom=    0.0000000   0.0000000   0.0000000   0.0000000   0.0000000   0.0000000   0.0000000   0.0000000   0.0000000   0.0000000
 NMagM=    0.0000000   0.0000000   0.0000000   0.0000000   2.7928460   2.7928460   2.7928460   2.7928460   2.7928460   2.7928460
 AtZNuc=   6.0000000   6.0000000   6.0000000   8.0000000   1.0000000   1.0000000   1.0000000   1.0000000   1.0000000   1.0000000
 Leave Link  101 at Thu Oct  1 15:35:11 2015, MaxMem=    33554432 cpu:               0.5 elap:               1.0
 (Enter /home/gauss/gdvi03p/gdv/l202.exe)
                          Input orientation:                          
 ---------------------------------------------------------------------
 Center     Atomic      Atomic             Coordinates (Angstroms)
 Number     Number       Type             X           Y           Z
 ---------------------------------------------------------------------
      1          6           0        0.152133   -0.035800    0.485797
      2          6           0       -1.039475    0.615938   -0.061249
      3          6           0        1.507144    0.097806   -0.148460
      4          8           0       -0.828215   -0.788248   -0.239431
      5          1           0        0.153725   -0.249258    1.552136
      6          1           0       -1.863178    0.881921    0.593333
      7          1           0       -0.949807    1.214210   -0.962771
      8          1           0        2.076806   -0.826189   -0.036671
      9          1           0        2.074465    0.901788    0.325106
     10          1           0        1.414895    0.315852   -1.212218
 ---------------------------------------------------------------------
                    Distance matrix (angstroms):
                    1          2          3          4          5
     1  C    0.000000
     2  C    1.464224   0.000000
     3  C    1.502061   2.600257   0.000000
     4  O    1.432905   1.431125   2.499454   0.000000
     5  H    1.087495   2.185246   2.200960   2.112919   0.000000
     6  H    2.217037   1.085224   3.538950   2.134036   2.503351
     7  H    2.207973   1.085685   2.818877   2.132567   3.111957
     8  H    2.145240   3.433881   1.091228   2.912336   2.560351
     9  H    2.144820   3.150810   1.092019   3.405947   2.553380
    10  H    2.145107   2.727400   1.089787   2.682703   3.090559
                    6          7          8          9         10
     6  H    0.000000
     7  H    1.834699   0.000000
     8  H    4.340279   3.765803   0.000000
     9  H    3.946818   3.301887   1.765444   0.000000
    10  H    3.784998   2.541867   1.767567   1.772489   0.000000
 Symmetry turned off by external request.
 Stoichiometry    C3H6O(1+,2)
 Framework group  C1[X(C3H6O)]
 Deg. of freedom    24
 Full point group                 C1      NOp   1
 Rotational constants (GHZ):     18.2269979      6.6669563      5.9403328
 Leave Link  202 at Thu Oct  1 15:35:11 2015, MaxMem=    33554432 cpu:               0.0 elap:               0.0
 (Enter /home/gauss/gdvi03p/gdv/l301.exe)
 Standard basis: STO-3G (5D, 7F)
 Ernie: Thresh=  0.10000D-02 Tol=  0.10000D-05 Strict=F.
    26 basis functions,    78 primitive gaussians,    26 cartesian basis functions
    16 alpha electrons       15 beta electrons
       nuclear repulsion energy       124.7885346707 Hartrees.
 IExCor=    0 DFT=F Ex=HF Corr=None ExCW=0 ScaHFX=  1.000000
 ScaDFX=  1.000000  1.000000  1.000000  1.000000 ScalE2=  1.000000  1.000000
 IRadAn=      0 IRanWt=     -1 IRanGd=            0 ICorTp=0 IEmpDi=  4
 NAtoms=   10 NActive=   10 NUniq=   10 SFac= 1.00D+00 NAtFMM=   60 NAOKFM=F Big=F
 Integral buffers will be    131072 words long.
 Raffenetti 2 integral format.
 Two-electron integral symmetry is turned off.
 Leave Link  301 at Thu Oct  1 15:35:11 2015, MaxMem=    33554432 cpu:               0.1 elap:               0.1
 (Enter /home/gauss/gdvi03p/gdv/l302.exe)
 NPDir=0 NMtPBC=     1 NCelOv=     1 NCel=       1 NClECP=     1 NCelD=      1
         NCelK=      1 NCelE2=     1 NClLst=     1 CellRange=     0.0.
 One-electron integrals computed using PRISM.
 One-electron integral symmetry used in STVInt
 NBasis=    26 RedAO= T EigKep=  2.09D-01  NBF=    26
 NBsUse=    26 1.00D-06 EigRej= -1.00D+00 NBFU=    26
 Leave Link  302 at Thu Oct  1 15:35:12 2015, MaxMem=    33554432 cpu:               0.4 elap:               0.8
 (Enter /home/gauss/gdvi03p/gdv/l303.exe)
 DipDrv:  MaxL=1.
 Leave Link  303 at Thu Oct  1 15:35:12 2015, MaxMem=    33554432 cpu:               0.0 elap:               0.1
 (Enter /home/gauss/gdvi03p/gdv/l401.exe)
 ExpMin= 1.69D-01 ExpMax= 1.31D+02 ExpMxC= 1.31D+02 IAcc=1 IRadAn=         1 AccDes= 0.00D+00
 Harris functional with IExCor=  205 and IRadAn=       1 diagonalized for initial guess.
 HarFok:  IExCor=  205 AccDes= 0.00D+00 IRadAn=         1 IDoV= 1 UseB2=F ITyADJ=14
 ICtDFT=  3500011 ScaDFX=  1.000000  1.000000  1.000000  1.000000
 FoFCou: FMM=F IPFlag=           0 FMFlag=      100000 FMFlg1=           0
         NFxFlg=           0 DoJE=T BraDBF=F KetDBF=T FulRan=T
         wScrn=  0.000000 ICntrl=       500 IOpCl=  0 I1Cent=   200000004 NGrid=           0
         NMat0=    1 NMatS0=      1 NMatT0=    0 NMatD0=    1 NMtDS0=    0 NMtDT0=    0
 Symmetry not used in FoFCou.
 Harris En= -189.441786860736    
 JPrj=0 DoOrth=F DoCkMO=F.
 Initial guess <Sx>= 0.0000 <Sy>= 0.0000 <Sz>= 0.5000 <S**2>= 0.7500 S= 0.5000
 Leave Link  401 at Thu Oct  1 15:35:13 2015, MaxMem=    33554432 cpu:               0.2 elap:               0.5
 (Enter /home/gauss/gdvi03p/gdv/l502.exe)
 Keep R1 and R2 ints in memory in canonical form, NReq=938551.
 FoFCou: FMM=F IPFlag=           0 FMFlag=           0 FMFlg1=           0
         NFxFlg=           0 DoJE=F BraDBF=F KetDBF=F FulRan=T
         wScrn=  0.000000 ICntrl=       600 IOpCl=  0 I1Cent=           0 NGrid=           0
         NMat0=    1 NMatS0=    351 NMatT0=    0 NMatD0=    1 NMtDS0=    0 NMtDT0=    0
 Symmetry not used in FoFCou.
 Two-electron integral symmetry not used.
 UHF open shell SCF:
 Using DIIS extrapolation, IDIIS=  1040.
 NGot=    33554432 LenX=    33428760 LenY=    33427643
 Requested convergence on RMS density matrix=1.00D-08 within 128 cycles.
 Requested convergence on MAX density matrix=1.00D-06.
 Requested convergence on             energy=1.00D-06.
 No special actions if energy rises.

 Cycle   1  Pass 1  IDiag  1:
 E= -189.136553576134    
 DIIS: error= 7.39D-02 at cycle   1 NSaved=   1.
 NSaved= 1 IEnMin= 1 EnMin= -189.136553576134     IErMin= 1 ErrMin= 7.39D-02
 ErrMax= 7.39D-02  0.00D+00 EMaxC= 1.00D-01 BMatC= 4.78D-01 BMatP= 4.78D-01
 IDIUse=3 WtCom= 2.61D-01 WtEn= 7.39D-01
 Coeff-Com:  0.100D+01
 Coeff-En:   0.100D+01
 Coeff:      0.100D+01
 Gap=     1.107 Goal=   None    Shift=    0.000
 Gap=     0.434 Goal=   None    Shift=    0.000
 GapD=    0.434 DampG=2.000 DampE=0.500 DampFc=1.0000 IDamp=-1.
 RMSDP=1.86D-02 MaxDP=1.61D-01              OVMax= 0.00D+00

 Cycle   2  Pass 1  IDiag  1:
 E= -189.249608769865     Delta-E=       -0.113055193730 Rises=F Damp=F
 DIIS: error= 1.94D-02 at cycle   2 NSaved=   2.
 NSaved= 2 IEnMin= 2 EnMin= -189.249608769865     IErMin= 2 ErrMin= 1.94D-02
 ErrMax= 1.94D-02  0.00D+00 EMaxC= 1.00D-01 BMatC= 4.46D-02 BMatP= 4.78D-01
 IDIUse=3 WtCom= 8.06D-01 WtEn= 1.94D-01
 Coeff-Com:  0.178D+00 0.822D+00
 Coeff-En:   0.000D+00 0.100D+01
 Coeff:      0.143D+00 0.857D+00
 Gap=     0.813 Goal=   None    Shift=    0.000
 Gap=     0.558 Goal=   None    Shift=    0.000
 RMSDP=5.41D-03 MaxDP=4.83D-02 DE=-1.13D-01 OVMax= 0.00D+00

 Cycle   3  Pass 1  IDiag  1:
 E= -189.267229137942     Delta-E=       -0.017620368077 Rises=F Damp=F
 DIIS: error= 9.40D-03 at cycle   3 NSaved=   3.
 NSaved= 3 IEnMin= 3 EnMin= -189.267229137942     IErMin= 3 ErrMin= 9.40D-03
 ErrMax= 9.40D-03  0.00D+00 EMaxC= 1.00D-01 BMatC= 3.75D-03 BMatP= 4.46D-02
 IDIUse=3 WtCom= 9.06D-01 WtEn= 9.40D-02
 Coeff-Com: -0.506D-01 0.155D-01 0.104D+01
 Coeff-En:   0.000D+00 0.000D+00 0.100D+01
 Coeff:     -0.458D-01 0.140D-01 0.103D+01
 Gap=     0.802 Goal=   None    Shift=    0.000
 Gap=     0.551 Goal=   None    Shift=    0.000
 RMSDP=1.92D-03 MaxDP=2.05D-02 DE=-1.76D-02 OVMax= 0.00D+00

 Cycle   4  Pass 1  IDiag  1:
 E= -189.269679065296     Delta-E=       -0.002449927354 Rises=F Damp=F
 DIIS: error= 2.61D-03 at cycle   4 NSaved=   4.
 NSaved= 4 IEnMin= 4 EnMin= -189.269679065296     IErMin= 4 ErrMin= 2.61D-03
 ErrMax= 2.61D-03  0.00D+00 EMaxC= 1.00D-01 BMatC= 5.37D-04 BMatP= 3.75D-03
 IDIUse=3 WtCom= 9.74D-01 WtEn= 2.61D-02
 Coeff-Com:  0.182D-02-0.761D-01-0.392D+00 0.147D+01
 Coeff-En:   0.000D+00 0.000D+00 0.000D+00 0.100D+01
 Coeff:      0.178D-02-0.741D-01-0.382D+00 0.145D+01
 Gap=     0.802 Goal=   None    Shift=    0.000
 Gap=     0.568 Goal=   None    Shift=    0.000
 RMSDP=1.15D-03 MaxDP=1.07D-02 DE=-2.45D-03 OVMax= 0.00D+00

 Cycle   5  Pass 1  IDiag  1:
 E= -189.270241170222     Delta-E=       -0.000562104926 Rises=F Damp=F
 DIIS: error= 1.06D-03 at cycle   5 NSaved=   5.
 NSaved= 5 IEnMin= 5 EnMin= -189.270241170222     IErMin= 5 ErrMin= 1.06D-03
 ErrMax= 1.06D-03  0.00D+00 EMaxC= 1.00D-01 BMatC= 6.13D-05 BMatP= 5.37D-04
 IDIUse=3 WtCom= 9.89D-01 WtEn= 1.06D-02
 Coeff-Com:  0.390D-02 0.114D-02-0.403D-01-0.107D+00 0.114D+01
 Coeff-En:   0.000D+00 0.000D+00 0.000D+00 0.000D+00 0.100D+01
 Coeff:      0.386D-02 0.113D-02-0.398D-01-0.106D+00 0.114D+01
 Gap=     0.804 Goal=   None    Shift=    0.000
 Gap=     0.570 Goal=   None    Shift=    0.000
 RMSDP=3.64D-04 MaxDP=4.15D-03 DE=-5.62D-04 OVMax= 0.00D+00

 Cycle   6  Pass 1  IDiag  1:
 E= -189.270300198738     Delta-E=       -0.000059028515 Rises=F Damp=F
 DIIS: error= 7.29D-04 at cycle   6 NSaved=   6.
 NSaved= 6 IEnMin= 6 EnMin= -189.270300198738     IErMin= 6 ErrMin= 7.29D-04
 ErrMax= 7.29D-04  0.00D+00 EMaxC= 1.00D-01 BMatC= 2.23D-05 BMatP= 6.13D-05
 IDIUse=3 WtCom= 9.93D-01 WtEn= 7.29D-03
 Coeff-Com: -0.472D-02 0.162D-01 0.136D+00-0.225D+00-0.129D+01 0.237D+01
 Coeff-En:   0.000D+00 0.000D+00 0.000D+00 0.000D+00 0.000D+00 0.100D+01
 Coeff:     -0.468D-02 0.161D-01 0.135D+00-0.223D+00-0.128D+01 0.236D+01
 Gap=     0.804 Goal=   None    Shift=    0.000
 Gap=     0.569 Goal=   None    Shift=    0.000
 RMSDP=4.67D-04 MaxDP=4.97D-03 DE=-5.90D-05 OVMax= 0.00D+00

 Cycle   7  Pass 1  IDiag  1:
 E= -189.270335881784     Delta-E=       -0.000035683047 Rises=F Damp=F
 DIIS: error= 1.56D-04 at cycle   7 NSaved=   7.
 NSaved= 7 IEnMin= 7 EnMin= -189.270335881784     IErMin= 7 ErrMin= 1.56D-04
 ErrMax= 1.56D-04  0.00D+00 EMaxC= 1.00D-01 BMatC= 1.87D-06 BMatP= 2.23D-05
 IDIUse=3 WtCom= 9.98D-01 WtEn= 1.56D-03
 Coeff-Com:  0.198D-02-0.795D-02-0.803D-01 0.149D+00 0.537D+00-0.126D+01
 Coeff-Com:  0.166D+01
 Coeff-En:   0.000D+00 0.000D+00 0.000D+00 0.000D+00 0.000D+00 0.000D+00
 Coeff-En:   0.100D+01
 Coeff:      0.197D-02-0.794D-02-0.802D-01 0.149D+00 0.536D+00-0.126D+01
 Coeff:      0.166D+01
 Gap=     0.805 Goal=   None    Shift=    0.000
 Gap=     0.569 Goal=   None    Shift=    0.000
 RMSDP=1.29D-04 MaxDP=1.41D-03 DE=-3.57D-05 OVMax= 0.00D+00

 Cycle   8  Pass 1  IDiag  1:
 E= -189.270338596691     Delta-E=       -0.000002714907 Rises=F Damp=F
 DIIS: error= 4.96D-05 at cycle   8 NSaved=   8.
 NSaved= 8 IEnMin= 8 EnMin= -189.270338596691     IErMin= 8 ErrMin= 4.96D-05
 ErrMax= 4.96D-05  0.00D+00 EMaxC= 1.00D-01 BMatC= 2.89D-07 BMatP= 1.87D-06
 IDIUse=1 WtCom= 1.00D+00 WtEn= 0.00D+00
 Coeff-Com: -0.320D-03 0.972D-03 0.218D-01-0.361D-01-0.894D-01 0.255D+00
 Coeff-Com: -0.553D+00 0.140D+01
 Coeff:     -0.320D-03 0.972D-03 0.218D-01-0.361D-01-0.894D-01 0.255D+00
 Coeff:     -0.553D+00 0.140D+01
 Gap=     0.805 Goal=   None    Shift=    0.000
 Gap=     0.569 Goal=   None    Shift=    0.000
 RMSDP=3.02D-05 MaxDP=3.74D-04 DE=-2.71D-06 OVMax= 0.00D+00

 Cycle   9  Pass 1  IDiag  1:
 E= -189.270338977182     Delta-E=       -0.000000380491 Rises=F Damp=F
 DIIS: error= 3.64D-05 at cycle   9 NSaved=   9.
 NSaved= 9 IEnMin= 9 EnMin= -189.270338977182     IErMin= 9 ErrMin= 3.64D-05
 ErrMax= 3.64D-05  0.00D+00 EMaxC= 1.00D-01 BMatC= 1.05D-07 BMatP= 2.89D-07
 IDIUse=1 WtCom= 1.00D+00 WtEn= 0.00D+00
 Coeff-Com: -0.619D-03 0.270D-02 0.211D-01-0.431D-01-0.167D+00 0.383D+00
 Coeff-Com: -0.434D+00-0.507D+00 0.175D+01
 Coeff:     -0.619D-03 0.270D-02 0.211D-01-0.431D-01-0.167D+00 0.383D+00
 Coeff:     -0.434D+00-0.507D+00 0.175D+01
 Gap=     0.805 Goal=   None    Shift=    0.000
 Gap=     0.569 Goal=   None    Shift=    0.000
 RMSDP=3.14D-05 MaxDP=3.97D-04 DE=-3.80D-07 OVMax= 0.00D+00

 Cycle  10  Pass 1  IDiag  1:
 E= -189.270339229579     Delta-E=       -0.000000252397 Rises=F Damp=F
 DIIS: error= 2.38D-05 at cycle  10 NSaved=  10.
 NSaved=10 IEnMin=10 EnMin= -189.270339229579     IErMin=10 ErrMin= 2.38D-05
 ErrMax= 2.38D-05  0.00D+00 EMaxC= 1.00D-01 BMatC= 3.79D-08 BMatP= 1.05D-07
 IDIUse=1 WtCom= 1.00D+00 WtEn= 0.00D+00
 Coeff-Com:  0.618D-03-0.237D-02-0.245D-01 0.468D-01 0.170D+00-0.400D+00
 Coeff-Com:  0.503D+00 0.350D+00-0.210D+01 0.246D+01
 Coeff:      0.618D-03-0.237D-02-0.245D-01 0.468D-01 0.170D+00-0.400D+00
 Coeff:      0.503D+00 0.350D+00-0.210D+01 0.246D+01
 Gap=     0.805 Goal=   None    Shift=    0.000
 Gap=     0.569 Goal=   None    Shift=    0.000
 RMSDP=2.65D-05 MaxDP=3.17D-04 DE=-2.52D-07 OVMax= 0.00D+00

 Cycle  11  Pass 1  IDiag  1:
 E= -189.270339344973     Delta-E=       -0.000000115394 Rises=F Damp=F
 DIIS: error= 1.08D-05 at cycle  11 NSaved=  11.
 NSaved=11 IEnMin=11 EnMin= -189.270339344973     IErMin=11 ErrMin= 1.08D-05
 ErrMax= 1.08D-05  0.00D+00 EMaxC= 1.00D-01 BMatC= 1.22D-08 BMatP= 3.79D-08
 IDIUse=1 WtCom= 1.00D+00 WtEn= 0.00D+00
 Coeff-Com: -0.305D-04-0.697D-04 0.307D-02-0.347D-02-0.994D-02 0.226D-01
 Coeff-Com: -0.326D-01-0.281D-01 0.194D+00-0.583D+00 0.144D+01
 Coeff:     -0.305D-04-0.697D-04 0.307D-02-0.347D-02-0.994D-02 0.226D-01
 Coeff:     -0.326D-01-0.281D-01 0.194D+00-0.583D+00 0.144D+01
 Gap=     0.805 Goal=   None    Shift=    0.000
 Gap=     0.569 Goal=   None    Shift=    0.000
 RMSDP=1.06D-05 MaxDP=1.26D-04 DE=-1.15D-07 OVMax= 0.00D+00

 Cycle  12  Pass 1  IDiag  1:
 E= -189.270339368351     Delta-E=       -0.000000023378 Rises=F Damp=F
 DIIS: error= 5.41D-06 at cycle  12 NSaved=  12.
 NSaved=12 IEnMin=12 EnMin= -189.270339368351     IErMin=12 ErrMin= 5.41D-06
 ErrMax= 5.41D-06  0.00D+00 EMaxC= 1.00D-01 BMatC= 2.62D-09 BMatP= 1.22D-08
 IDIUse=1 WtCom= 1.00D+00 WtEn= 0.00D+00
 Coeff-Com: -0.155D-03 0.614D-03 0.549D-02-0.114D-01-0.422D-01 0.101D+00
 Coeff-Com: -0.129D+00-0.112D+00 0.646D+00-0.760D+00-0.419D+00 0.172D+01
 Coeff:     -0.155D-03 0.614D-03 0.549D-02-0.114D-01-0.422D-01 0.101D+00
 Coeff:     -0.129D+00-0.112D+00 0.646D+00-0.760D+00-0.419D+00 0.172D+01
 Gap=     0.805 Goal=   None    Shift=    0.000
 Gap=     0.569 Goal=   None    Shift=    0.000
 RMSDP=8.33D-06 MaxDP=1.04D-04 DE=-2.34D-08 OVMax= 0.00D+00

 Cycle  13  Pass 1  IDiag  1:
 E= -189.270339375752     Delta-E=       -0.000000007401 Rises=F Damp=F
 DIIS: error= 2.25D-06 at cycle  13 NSaved=  13.
 NSaved=13 IEnMin=13 EnMin= -189.270339375752     IErMin=13 ErrMin= 2.25D-06
 ErrMax= 2.25D-06  0.00D+00 EMaxC= 1.00D-01 BMatC= 5.10D-10 BMatP= 2.62D-09
 IDIUse=1 WtCom= 1.00D+00 WtEn= 0.00D+00
 Coeff-Com:  0.433D-04-0.125D-03-0.155D-02 0.312D-02 0.119D-01-0.284D-01
 Coeff-Com:  0.357D-01 0.670D-01-0.282D+00 0.331D+00 0.259D+00-0.110D+01
 Coeff-Com:  0.171D+01
 Coeff:      0.433D-04-0.125D-03-0.155D-02 0.312D-02 0.119D-01-0.284D-01
 Coeff:      0.357D-01 0.670D-01-0.282D+00 0.331D+00 0.259D+00-0.110D+01
 Coeff:      0.171D+01
 Gap=     0.805 Goal=   None    Shift=    0.000
 Gap=     0.569 Goal=   None    Shift=    0.000
 RMSDP=1.81D-06 MaxDP=2.56D-05 DE=-7.40D-09 OVMax= 0.00D+00

 Cycle  14  Pass 1  IDiag  1:
 E= -189.270339376404     Delta-E=       -0.000000000652 Rises=F Damp=F
 DIIS: error= 1.11D-06 at cycle  14 NSaved=  14.
 NSaved=14 IEnMin=14 EnMin= -189.270339376404     IErMin=14 ErrMin= 1.11D-06
 ErrMax= 1.11D-06  0.00D+00 EMaxC= 1.00D-01 BMatC= 9.29D-11 BMatP= 5.10D-10
 IDIUse=1 WtCom= 1.00D+00 WtEn= 0.00D+00
 Coeff-Com: -0.199D-04 0.133D-04 0.706D-03-0.136D-02-0.544D-02 0.130D-01
 Coeff-Com: -0.153D-01-0.692D-01 0.232D+00-0.253D+00-0.321D+00 0.117D+01
 Coeff-Com: -0.221D+01 0.246D+01
 Coeff:     -0.199D-04 0.133D-04 0.706D-03-0.136D-02-0.544D-02 0.130D-01
 Coeff:     -0.153D-01-0.692D-01 0.232D+00-0.253D+00-0.321D+00 0.117D+01
 Coeff:     -0.221D+01 0.246D+01
 Gap=     0.805 Goal=   None    Shift=    0.000
 Gap=     0.569 Goal=   None    Shift=    0.000
 RMSDP=9.83D-07 MaxDP=1.51D-05 DE=-6.52D-10 OVMax= 0.00D+00

 Cycle  15  Pass 1  IDiag  1:
 E= -189.270339376591     Delta-E=       -0.000000000187 Rises=F Damp=F
 DIIS: error= 4.69D-07 at cycle  15 NSaved=  15.
 NSaved=15 IEnMin=15 EnMin= -189.270339376591     IErMin=15 ErrMin= 4.69D-07
 ErrMax= 4.69D-07  0.00D+00 EMaxC= 1.00D-01 BMatC= 1.35D-11 BMatP= 9.29D-11
 IDIUse=1 WtCom= 1.00D+00 WtEn= 0.00D+00
 Coeff-Com:  0.436D-05 0.217D-04-0.157D-03 0.253D-03 0.124D-02-0.287D-02
 Coeff-Com:  0.273D-02 0.386D-01-0.112D+00 0.111D+00 0.189D+00-0.627D+00
 Coeff-Com:  0.125D+01-0.179D+01 0.194D+01
 Coeff:      0.436D-05 0.217D-04-0.157D-03 0.253D-03 0.124D-02-0.287D-02
 Coeff:      0.273D-02 0.386D-01-0.112D+00 0.111D+00 0.189D+00-0.627D+00
 Coeff:      0.125D+01-0.179D+01 0.194D+01
 Gap=     0.805 Goal=   None    Shift=    0.000
 Gap=     0.569 Goal=   None    Shift=    0.000
 RMSDP=4.28D-07 MaxDP=6.77D-06 DE=-1.87D-10 OVMax= 0.00D+00

 Cycle  16  Pass 1  IDiag  1:
 E= -189.270339376621     Delta-E=       -0.000000000029 Rises=F Damp=F
 DIIS: error= 1.60D-07 at cycle  16 NSaved=  16.
 NSaved=16 IEnMin=16 EnMin= -189.270339376621     IErMin=16 ErrMin= 1.60D-07
 ErrMax= 1.60D-07  0.00D+00 EMaxC= 1.00D-01 BMatC= 1.48D-12 BMatP= 1.35D-11
 IDIUse=1 WtCom= 1.00D+00 WtEn= 0.00D+00
 Coeff-Com: -0.122D-05-0.125D-04 0.453D-04-0.504D-04-0.344D-03 0.751D-03
 Coeff-Com: -0.490D-03-0.173D-01 0.466D-01-0.433D-01-0.838D-01 0.268D+00
 Coeff-Com: -0.549D+00 0.870D+00-0.127D+01 0.178D+01
 Coeff:     -0.122D-05-0.125D-04 0.453D-04-0.504D-04-0.344D-03 0.751D-03
 Coeff:     -0.490D-03-0.173D-01 0.466D-01-0.433D-01-0.838D-01 0.268D+00
 Coeff:     -0.549D+00 0.870D+00-0.127D+01 0.178D+01
 Gap=     0.805 Goal=   None    Shift=    0.000
 Gap=     0.569 Goal=   None    Shift=    0.000
 RMSDP=1.13D-07 MaxDP=1.59D-06 DE=-2.94D-11 OVMax= 0.00D+00

 Cycle  17  Pass 1  IDiag  1:
 E= -189.270339376623     Delta-E=       -0.000000000003 Rises=F Damp=F
 DIIS: error= 6.35D-08 at cycle  17 NSaved=  17.
 NSaved=17 IEnMin=17 EnMin= -189.270339376623     IErMin=17 ErrMin= 6.35D-08
 ErrMax= 6.35D-08  0.00D+00 EMaxC= 1.00D-01 BMatC= 2.62D-13 BMatP= 1.48D-12
 IDIUse=1 WtCom= 1.00D+00 WtEn= 0.00D+00
 Coeff-Com:  0.107D-05 0.477D-05-0.413D-04 0.520D-04 0.296D-03-0.646D-03
 Coeff-Com:  0.592D-03 0.914D-02-0.250D-01 0.229D-01 0.426D-01-0.137D+00
 Coeff-Com:  0.286D+00-0.475D+00 0.775D+00-0.146D+01 0.196D+01
 Coeff:      0.107D-05 0.477D-05-0.413D-04 0.520D-04 0.296D-03-0.646D-03
 Coeff:      0.592D-03 0.914D-02-0.250D-01 0.229D-01 0.426D-01-0.137D+00
 Coeff:      0.286D+00-0.475D+00 0.775D+00-0.146D+01 0.196D+01
 Gap=     0.805 Goal=   None    Shift=    0.000
 Gap=     0.569 Goal=   None    Shift=    0.000
 RMSDP=4.52D-08 MaxDP=6.32D-07 DE=-2.56D-12 OVMax= 0.00D+00

 Cycle  18  Pass 1  IDiag  1:
 E= -189.270339376623     Delta-E=        0.000000000000 Rises=F Damp=F
 DIIS: error= 2.37D-08 at cycle  18 NSaved=  18.
 NSaved=18 IEnMin=18 EnMin= -189.270339376623     IErMin=18 ErrMin= 2.37D-08
 ErrMax= 2.37D-08  0.00D+00 EMaxC= 1.00D-01 BMatC= 4.19D-14 BMatP= 2.62D-13
 IDIUse=1 WtCom= 1.00D+00 WtEn= 0.00D+00
 Large coefficients: NSaved= 18 BigCof=    0.00 CofMax=   10.00 Det=-6.85D-15
 Inversion failed.  Reducing to 17 matrices.
 Large coefficients: NSaved= 17 BigCof=    0.00 CofMax=   10.00 Det=-8.19D-15
 Inversion failed.  Reducing to 16 matrices.
 Coeff-Com:  0.214D-05 0.321D-05-0.374D-05-0.467D-05-0.759D-05-0.198D-03
 Coeff-Com:  0.142D-03 0.542D-03-0.357D-03 0.361D-03-0.697D-02 0.307D-01
 Coeff-Com: -0.103D+00 0.362D+00-0.970D+00 0.169D+01
 Coeff:      0.214D-05 0.321D-05-0.374D-05-0.467D-05-0.759D-05-0.198D-03
 Coeff:      0.142D-03 0.542D-03-0.357D-03 0.361D-03-0.697D-02 0.307D-01
 Coeff:     -0.103D+00 0.362D+00-0.970D+00 0.169D+01
 Gap=     0.805 Goal=   None    Shift=    0.000
 Gap=     0.569 Goal=   None    Shift=    0.000
 RMSDP=1.83D-08 MaxDP=2.50D-07 DE=-1.71D-13 OVMax= 0.00D+00

 Cycle  19  Pass 1  IDiag  1:
 E= -189.270339376624     Delta-E=       -0.000000000001 Rises=F Damp=F
 DIIS: error= 8.45D-09 at cycle  19 NSaved=  17.
 NSaved=17 IEnMin=17 EnMin= -189.270339376624     IErMin=17 ErrMin= 8.45D-09
 ErrMax= 8.45D-09  0.00D+00 EMaxC= 1.00D-01 BMatC= 7.39D-15 BMatP= 4.19D-14
 IDIUse=1 WtCom= 1.00D+00 WtEn= 0.00D+00
 Large coefficients: NSaved= 17 BigCof=    0.00 CofMax=   10.00 Det=-1.80D-15
 Inversion failed.  Reducing to 16 matrices.
 Large coefficients: NSaved= 16 BigCof=    0.00 CofMax=   10.00 Det=-1.95D-15
 Inversion failed.  Reducing to 15 matrices.
 Coeff-Com: -0.474D-06-0.279D-05 0.146D-04 0.154D-03-0.432D-03 0.347D-03
 Coeff-Com:  0.726D-03-0.224D-02 0.432D-02-0.531D-02 0.521D-02-0.268D-01
 Coeff-Com:  0.177D+00-0.735D+00 0.158D+01
 Coeff:     -0.474D-06-0.279D-05 0.146D-04 0.154D-03-0.432D-03 0.347D-03
 Coeff:      0.726D-03-0.224D-02 0.432D-02-0.531D-02 0.521D-02-0.268D-01
 Coeff:      0.177D+00-0.735D+00 0.158D+01
 Gap=     0.805 Goal=   None    Shift=    0.000
 Gap=     0.569 Goal=   None    Shift=    0.000
 RMSDP=7.18D-09 MaxDP=1.02D-07 DE=-6.25D-13 OVMax= 0.00D+00

 SCF Done:  E(UHF) =  -189.270339377     A.U. after   19 cycles
            NFock= 19  Conv=0.72D-08     -V/T= 2.0145
 <Sx>= 0.0000 <Sy>= 0.0000 <Sz>= 0.5000 <S**2>= 0.7614 S= 0.5057
 <L.S>= 0.000000000000E+00
 KE= 1.865666257302D+02 PE=-6.816512385857D+02 EE= 1.810257388081D+02
 Annihilation of the first spin contaminant:
 S**2 before annihilation     0.7614,   after     0.7501
 Leave Link  502 at Thu Oct  1 15:35:13 2015, MaxMem=    33554432 cpu:               0.1 elap:               0.3
 (Enter /home/gauss/gdvi03p/gdv/l601.exe)
 Copying SCF densities to generalized density rwf, IOpCl= 1 IROHF=0.

 **********************************************************************

            Population analysis using the SCF density.

 **********************************************************************

 Alpha  occ. eigenvalues --  -20.88373 -11.43796 -11.43396 -11.29002  -1.84802
 Alpha  occ. eigenvalues --   -1.27088  -1.19048  -1.10012  -1.04448  -0.94121
 Alpha  occ. eigenvalues --   -0.88852  -0.83150  -0.79620  -0.76293  -0.73617
 Alpha  occ. eigenvalues --   -0.69992
 Alpha virt. eigenvalues --    0.10468   0.15377   0.32473   0.37611   0.39206
 Alpha virt. eigenvalues --    0.42075   0.49895   0.52412   0.53560   0.56543
  Beta  occ. eigenvalues --  -20.85293 -11.44038 -11.43664 -11.28902  -1.71669
  Beta  occ. eigenvalues --   -1.23859  -1.17114  -1.06907  -0.94542  -0.89526
  Beta  occ. eigenvalues --   -0.84829  -0.78847  -0.75895  -0.73237  -0.69381
  Beta virt. eigenvalues --   -0.12468   0.10747   0.19060   0.34494   0.38232
  Beta virt. eigenvalues --    0.39557   0.42377   0.50007   0.52441   0.53574
  Beta virt. eigenvalues --    0.56530
          Condensed to atoms (all electrons):
               1          2          3          4          5          6
     1  C    4.796643   0.311570   0.358845   0.158655   0.382139  -0.014757
     2  C    0.311570   4.804624  -0.017974   0.161165  -0.018302   0.381499
     3  C    0.358845  -0.017974   4.726960  -0.010827  -0.017627   0.000711
     4  O    0.158655   0.161165  -0.010827   7.577340  -0.010211  -0.008813
     5  H    0.382139  -0.018302  -0.017627  -0.010211   0.481974  -0.003685
     6  H   -0.014757   0.381499   0.000711  -0.008813  -0.003685   0.463543
     7  H   -0.016047   0.380662  -0.002862  -0.008926   0.001113  -0.015468
     8  H   -0.021893   0.001349   0.382960  -0.000639  -0.001748  -0.000023
     9  H   -0.017566  -0.000726   0.381373   0.000528  -0.001496  -0.000004
    10  H   -0.023465  -0.002869   0.384493  -0.000751   0.001512   0.000000
               7          8          9         10
     1  C   -0.016047  -0.021893  -0.017566  -0.023465
     2  C    0.380662   0.001349  -0.000726  -0.002869
     3  C   -0.002862   0.382960   0.381373   0.384493
     4  O   -0.008926  -0.000639   0.000528  -0.000751
     5  H    0.001113  -0.001748  -0.001496   0.001512
     6  H   -0.015468  -0.000023  -0.000004   0.000000
     7  H    0.466813   0.000015   0.000163   0.000449
     8  H    0.000015   0.545425  -0.016638  -0.018925
     9  H    0.000163  -0.016638   0.530985  -0.016984
    10  H    0.000449  -0.018925  -0.016984   0.565747
          Atomic-Atomic Spin Densities.
               1          2          3          4          5          6
     1  C   -0.095116   0.012421   0.009508  -0.034839   0.006112   0.000141
     2  C    0.012421  -0.105750   0.000371  -0.032396  -0.000052   0.006552
     3  C    0.009508   0.000371   0.034823  -0.002821  -0.002478  -0.000112
     4  O   -0.034839  -0.032396  -0.002821   1.168308  -0.003024  -0.002809
     5  H    0.006112  -0.000052  -0.002478  -0.003024   0.030600   0.000737
     6  H    0.000141   0.006552  -0.000112  -0.002809   0.000737   0.029698
     7  H    0.000271   0.006831   0.000474  -0.002786  -0.000185  -0.002788
     8  H    0.000338  -0.000004  -0.000700   0.000021  -0.000031   0.000000
     9  H    0.000534   0.000001  -0.001099   0.000040   0.000286   0.000008
    10  H    0.000146  -0.000073  -0.000932   0.000324   0.000050   0.000010
               7          8          9         10
     1  C    0.000271   0.000338   0.000534   0.000146
     2  C    0.006831  -0.000004   0.000001  -0.000073
     3  C    0.000474  -0.000700  -0.001099  -0.000932
     4  O   -0.002786   0.000021   0.000040   0.000324
     5  H   -0.000185  -0.000031   0.000286   0.000050
     6  H   -0.002788   0.000000   0.000008   0.000010
     7  H    0.028720  -0.000001  -0.000051  -0.000141
     8  H   -0.000001  -0.002891   0.000284   0.000060
     9  H   -0.000051   0.000284  -0.003189   0.000346
    10  H   -0.000141   0.000060   0.000346  -0.002298
 Mulliken charges and spin densities:
               1          2
     1  C    0.085875  -0.100483
     2  C   -0.000998  -0.112098
     3  C   -0.186051   0.037035
     4  O    0.142481   1.090019
     5  H    0.186331   0.032016
     6  H    0.196997   0.031437
     7  H    0.194088   0.030345
     8  H    0.130118  -0.002924
     9  H    0.140365  -0.002839
    10  H    0.110793  -0.002507
 Sum of Mulliken charges =   1.00000   1.00000
 Mulliken charges and spin densities with hydrogens summed into heavy atoms:
               1          2
     1  C    0.272206  -0.068467
     2  C    0.390088  -0.050316
     3  C    0.195226   0.028764
     4  O    0.142481   1.090019
 Electronic spatial extent (au):  <R**2>=            253.0252
 Charge=              1.0000 electrons
 Dipole moment (field-independent basis, Debye):
    X=             -1.4141    Y=              0.7539    Z=              0.6265  Tot=              1.7206
 Quadrupole moment (field-independent basis, Debye-Ang):
   XX=            -15.7654   YY=            -20.6415   ZZ=            -19.2357
   XY=             -1.4357   XZ=             -0.2730   YZ=             -0.9451
 Traceless Quadrupole moment (field-independent basis, Debye-Ang):
   XX=              2.7822   YY=             -2.0940   ZZ=             -0.6882
   XY=             -1.4357   XZ=             -0.2730   YZ=             -0.9451
 Octapole moment (field-independent basis, Debye-Ang**2):
  XXX=             -5.2191  YYY=             -2.3778  ZZZ=              0.0879  XYY=             -1.9710
  XXY=              1.7147  XXZ=              1.5886  XZZ=             -2.2695  YZZ=             -0.4362
  YYZ=             -0.6692  XYZ=              0.5142
 Hexadecapole moment (field-independent basis, Debye-Ang**3):
 XXXX=           -172.7889 YYYY=            -57.6420 ZZZZ=            -39.2440 XXXY=             -0.5290
 XXXZ=             -1.6230 YYYX=              0.8862 YYYZ=             -0.4672 ZZZX=              0.9372
 ZZZY=             -1.4830 XXYY=            -35.8584 XXZZ=            -38.0158 YYZZ=            -16.1020
 XXYZ=              1.9937 YYXZ=              0.9923 ZZXY=              0.2373
 N-N= 1.247885346707D+02 E-N=-6.816512385866D+02  KE= 1.865666257302D+02
                          Isotropic Fermi Contact Couplings
        Atom                 a.u.       MegaHertz       Gauss      10(-4) cm-1
     1  C(13)             -0.02697     -30.32113     -10.81933     -10.11404
     2  C(13)             -0.02973     -33.42279     -11.92608     -11.14864
     3  C(13)              0.01315      14.77823       5.27324       4.92949
     4  O(17)              0.13505     -81.86871     -29.21279     -27.30846
     5  H(1)               0.01334      59.64985      21.28455      19.89705
     6  H(1)               0.01297      57.99053      20.69246      19.34356
     7  H(1)               0.01257      56.17631      20.04510      18.73840
     8  H(1)              -0.00114      -5.09759      -1.81895      -1.70037
     9  H(1)              -0.00124      -5.52697      -1.97216      -1.84360
    10  H(1)              -0.00092      -4.12226      -1.47092      -1.37504
 --------------------------------------------------------
       Center         ----  Spin Dipole Couplings  ----
                      3XX-RR        3YY-RR        3ZZ-RR
 --------------------------------------------------------
     1   Atom        0.037340     -0.040219      0.002879
     2   Atom       -0.005823      0.024987     -0.019164
     3   Atom        0.034015     -0.017887     -0.016128
     4   Atom       -0.298312     -1.165746      1.464058
     5   Atom        0.002850     -0.008614      0.005764
     6   Atom       -0.010264      0.017927     -0.007663
     7   Atom       -0.007280      0.024626     -0.017346
     8   Atom        0.010665     -0.003713     -0.006953
     9   Atom        0.002582      0.000391     -0.002972
    10   Atom        0.007999     -0.005177     -0.002822
 --------------------------------------------------------
                        XY            XZ            YZ
 --------------------------------------------------------
     1   Atom        0.009189      0.028617     -0.001725
     2   Atom       -0.042948     -0.008304     -0.018513
     3   Atom        0.013747     -0.010200     -0.001412
     4   Atom        0.336362     -1.631115     -0.634057
     5   Atom        0.005268      0.017802      0.013741
     6   Atom       -0.014550      0.000786      0.009356
     7   Atom       -0.004754      0.001323     -0.005721
     8   Atom       -0.001767      0.001910     -0.000871
     9   Atom        0.005752      0.002521      0.003056
    10   Atom        0.008498     -0.005302     -0.004275
 --------------------------------------------------------


 ---------------------------------------------------------------------------------
              Anisotropic Spin Dipole Couplings in Principal Axis System
 ---------------------------------------------------------------------------------

       Atom             a.u.   MegaHertz   Gauss  10(-4) cm-1        Axes

              Baa    -0.0420    -5.638    -2.012    -1.881 -0.1643  0.9761  0.1422
     1 C(13)  Bbb    -0.0120    -1.616    -0.577    -0.539 -0.4623 -0.2036  0.8631
              Bcc     0.0541     7.254     2.588     2.420  0.8714  0.0761  0.4847
 
              Baa    -0.0473    -6.345    -2.264    -2.117  0.6550  0.5277  0.5408
     2 C(13)  Bbb    -0.0094    -1.262    -0.450    -0.421 -0.5205 -0.2037  0.8292
              Bcc     0.0567     7.607     2.714     2.537 -0.5478  0.8246 -0.1413
 
              Baa    -0.0216    -2.902    -1.035    -0.968 -0.2784  0.9185 -0.2809
     3 C(13)  Bbb    -0.0177    -2.375    -0.848    -0.792  0.1011  0.3189  0.9424
              Bcc     0.0393     5.277     1.883     1.760  0.9551  0.2340 -0.1817
 
              Baa    -1.3258    95.935    34.232    32.001  0.3841  0.8261  0.4123
     4 O(17)  Bbb    -1.2484    90.333    32.233    30.132  0.7752 -0.5311  0.3420
              Bcc     2.5742  -186.268   -66.465   -62.132 -0.5015 -0.1883  0.8444
 
              Baa    -0.0188   -10.034    -3.581    -3.347  0.3622  0.6768 -0.6409
     5 H(1)   Bbb    -0.0087    -4.616    -1.647    -1.540  0.7165 -0.6419 -0.2730
              Bcc     0.0275    14.650     5.228     4.887  0.5962  0.3604  0.7174
 
              Baa    -0.0185    -9.871    -3.522    -3.293  0.7965  0.4279 -0.4272
     6 H(1)   Bbb    -0.0077    -4.085    -1.458    -1.363  0.4890 -0.0405  0.8713
              Bcc     0.0262    13.957     4.980     4.655 -0.3555  0.9029  0.2415
 
              Baa    -0.0182    -9.688    -3.457    -3.231 -0.0657  0.1251  0.9900
     7 H(1)   Bbb    -0.0080    -4.242    -1.514    -1.415  0.9873  0.1522  0.0463
              Bcc     0.0261    13.930     4.971     4.647 -0.1449  0.9804 -0.1335
 
              Baa    -0.0073    -3.891    -1.389    -1.298 -0.0846  0.1960  0.9769
     8 H(1)   Bbb    -0.0038    -2.032    -0.725    -0.678  0.1429  0.9727 -0.1828
              Bcc     0.0111     5.923     2.114     1.976  0.9861 -0.1241  0.1103
 
              Baa    -0.0050    -2.686    -0.959    -0.896 -0.3084  0.6937 -0.6509
     9 H(1)   Bbb    -0.0036    -1.929    -0.688    -0.643 -0.6234  0.3695  0.6891
              Bcc     0.0086     4.615     1.647     1.539  0.7185  0.6183  0.3185
 
              Baa    -0.0098    -5.228    -1.865    -1.744 -0.3411  0.8945  0.2890
    10 H(1)   Bbb    -0.0049    -2.613    -0.933    -0.872  0.4431 -0.1181  0.8886
              Bcc     0.0147     7.841     2.798     2.616  0.8290  0.4311 -0.3561
 

 ---------------------------------------------------------------------------------

 No NMR shielding tensors so no spin-rotation constants.
 Leave Link  601 at Thu Oct  1 15:35:14 2015, MaxMem=    33554432 cpu:               0.2 elap:               0.4
 (Enter /home/gauss/gdvi03p/gdv/l9999.exe)
 Unable to Open any file for archive entry.
 1\1\GINC-MEDUSA\SP\UHF\STO-3G\C3H6O1(1+,2)\PLESTRAN\01-Oct-2015\0\\#p 
 uhf/sto-3g nosymm\\S-Propylene Oxide STO-3G\\1,2\C,0,0.152133,-0.0358,
 0.485797\C,0,-1.039475,0.615938,-0.061249\C,0,1.507144,0.097806,-0.148
 46\O,0,-0.828215,-0.788248,-0.239431\H,0,0.153725,-0.249258,1.552136\H
 ,0,-1.863178,0.881921,0.593333\H,0,-0.949807,1.21421,-0.962771\H,0,2.0
 76806,-0.826189,-0.036671\H,0,2.074465,0.901788,0.325106\H,0,1.414895,
 0.315852,-1.212218\\Version=ES64L-GDVRevI.03+\HF=-189.2703394\EFC=0.\S
 2=0.761417\S2-1=0.\S2A=0.750087\RMSD=7.182e-09\Dipole=-0.5563361,0.296
 6165,0.2464868\Quadrupole=2.0684651,-1.5568376,-0.5116275,-1.0674404,-
 0.202973,-0.7026282\PG=C01 [X(C3H6O1)]\\@
 The archive entry for this job was punched.


 WAR ES EIN GOTT DER DIESE ZEICHEN SCHRIEB?
          - LUDWIG BOLTZMANN, QUOTING GOETHE, ABOUT MAXWELL'S EQUATIONS.
 Job cpu time:       0 days  0 hours  0 minutes  1.9 seconds.
 Elapsed time:       0 days  0 hours  0 minutes  3.3 seconds.
 File lengths (MBytes):  RWF=      5 Int=      0 D2E=      0 Chk=      1 Scr=      1
 Normal termination of Gaussian DV at Thu Oct  1 15:35:14 2015.
