 Entering Gaussian System, Link 0=gdv
 Input=propylene-oxide_ccpVDZ_field.com
 Output=propylene-oxide_ccpVDZ_field.log
 Initial command:
 /home/gauss/gdvi03p/gdv/l1.exe "/home/GauScr/Gau-12033.inp" -scrdir="/home/GauScr/"
 Entering Link 1 = /home/gauss/gdvi03p/gdv/l1.exe PID=     12034.
  
 Copyright (c) 1988,1990,1992,1993,1995,1998,2003,2009,2015,
            Gaussian, Inc.  All Rights Reserved.
  
 This is the private, development version of
 the Gaussian(R) DV system of programs. It is based on
 the Gaussian(R) 09 system (copyright 2009, Gaussian, Inc.),
 the Gaussian(R) 03 system (copyright 2003, Gaussian, Inc.),
 the Gaussian(R) 98 system (copyright 1998, Gaussian, Inc.),
 the Gaussian(R) 94 system (copyright 1995, Gaussian, Inc.),
 the Gaussian 92(TM) system (copyright 1992, Gaussian, Inc.),
 the Gaussian 90(TM) system (copyright 1990, Gaussian, Inc.),
 the Gaussian 88(TM) system (copyright 1988, Gaussian, Inc.),
 the Gaussian 86(TM) system (copyright 1986, Carnegie Mellon
 University), and the Gaussian 82(TM) system (copyright 1983,
 Carnegie Mellon University). Gaussian is a federally registered
 trademark of Gaussian, Inc.
  
 This software contains proprietary and confidential information,
 including trade secrets, belonging to Gaussian, Inc.
  
 This software is provided under written license and may be
 used, copied, transmitted, or stored only in accord with that
 written license.
  
 The following legend is applicable only to US Government
 contracts under FAR:
  
                    RESTRICTED RIGHTS LEGEND
  
 Use, reproduction and disclosure by the US Government is
 subject to restrictions as set forth in subparagraphs (a)
 and (c) of the Commercial Computer Software - Restricted
 Rights clause in FAR 52.227-19.
  
 Gaussian, Inc.
 340 Quinnipiac St., Bldg. 40, Wallingford CT 06492
  
  
 ---------------------------------------------------------------
 Warning -- This program may not be used in any manner that
 competes with the business of Gaussian, Inc. or will provide
 assistance to any competitor of Gaussian, Inc.  The licensee
 of this program is prohibited from giving any competitor of
 Gaussian, Inc. access to this program.  By using this program,
 the user acknowledges that Gaussian, Inc. is engaged in the
 business of creating and licensing software in the field of
 computational chemistry and represents and warrants to the
 licensee that it is not a competitor of Gaussian, Inc. and that
 it will not use this program in any manner prohibited above.
 ---------------------------------------------------------------
  

 Cite this work as:
 Gaussian Development Version, Revision I.03+,
 M. J. Frisch, G. W. Trucks, H. B. Schlegel, G. E. Scuseria, 
 M. A. Robb, J. R. Cheeseman, G. Scalmani, V. Barone, B. Mennucci, 
 G. A. Petersson, H. Nakatsuji, M. Caricato, X. Li, H. P. Hratchian, 
 J. Bloino, B. G. Janesko, A. F. Izmaylov, A. Marenich, F. Lipparini, 
 G. Zheng, J. L. Sonnenberg, W. Liang, M. Hada, M. Ehara, K. Toyota, 
 R. Fukuda, J. Hasegawa, M. Ishida, T. Nakajima, Y. Honda, O. Kitao, 
 H. Nakai, T. Vreven, K. Throssell, J. A. Montgomery, Jr., 
 J. E. Peralta, F. Ogliaro, M. Bearpark, J. J. Heyd, E. Brothers, 
 K. N. Kudin, V. N. Staroverov, T. Keith, R. Kobayashi, J. Normand, 
 K. Raghavachari, A. Rendell, J. C. Burant, S. S. Iyengar, J. Tomasi, 
 M. Cossi, N. Rega, J. M. Millam, M. Klene, J. E. Knox, J. B. Cross, 
 V. Bakken, C. Adamo, J. Jaramillo, R. Gomperts, R. E. Stratmann, 
 O. Yazyev, A. J. Austin, R. Cammi, C. Pomelli, J. W. Ochterski, 
 R. L. Martin, K. Morokuma, V. G. Zakrzewski, G. A. Voth, 
 P. Salvador, J. J. Dannenberg, S. Dapprich, P. V. Parandekar, 
 N. J. Mayhall, A. D. Daniels, O. Farkas, J. B. Foresman, 
 J. V. Ortiz, J. Cioslowski, and D. J. Fox, 
 Gaussian, Inc., Wallingford CT, 2014.
 
 *******************************************
 Gaussian DV:  ES64L-GDVRevI.03+  2-May-2015
                  1-Oct-2015 
 *******************************************
 -------------------------------------------------
 # uhf/cc-pVDZ gfinput pop=full nosymm Field=X-100
 -------------------------------------------------
 1/38=1,172=1/1;
 2/12=2,15=1,17=6,18=5,40=1/2;
 3/5=16,11=2,14=1,15=-100,24=10,25=1,30=1,116=2/1,2,3;
 4//1;
 5/5=2,38=5/2;
 6/7=3,28=1/1;
 99/5=1,9=1/99;
 -------------------------
 S-Propylene Oxide cc-pVDZ
 -------------------------
 Symbolic Z-matrix:
 Charge =  1 Multiplicity = 2
 C                     0.15213  -0.0358    0.4858 
 C                    -1.03947   0.61594  -0.06125 
 C                     1.50714   0.09781  -0.14846 
 O                    -0.82822  -0.78825  -0.23943 
 H                     0.15373  -0.24926   1.55214 
 H                    -1.86318   0.88192   0.59333 
 H                    -0.94981   1.21421  -0.96277 
 H                     2.07681  -0.82619  -0.03667 
 H                     2.07447   0.90179   0.32511 
 H                     1.4149    0.31585  -1.21222 
 
                          Input orientation:                          
 ---------------------------------------------------------------------
 Center     Atomic      Atomic             Coordinates (Angstroms)
 Number     Number       Type             X           Y           Z
 ---------------------------------------------------------------------
      1          6           0        0.152133   -0.035800    0.485797
      2          6           0       -1.039475    0.615938   -0.061249
      3          6           0        1.507144    0.097806   -0.148460
      4          8           0       -0.828215   -0.788248   -0.239431
      5          1           0        0.153725   -0.249258    1.552136
      6          1           0       -1.863178    0.881921    0.593333
      7          1           0       -0.949807    1.214210   -0.962771
      8          1           0        2.076806   -0.826189   -0.036671
      9          1           0        2.074465    0.901788    0.325106
     10          1           0        1.414895    0.315852   -1.212218
 ---------------------------------------------------------------------
                    Distance matrix (angstroms):
                    1          2          3          4          5
     1  C    0.000000
     2  C    1.464224   0.000000
     3  C    1.502061   2.600257   0.000000
     4  O    1.432905   1.431125   2.499454   0.000000
     5  H    1.087495   2.185246   2.200960   2.112919   0.000000
     6  H    2.217037   1.085224   3.538950   2.134036   2.503351
     7  H    2.207973   1.085685   2.818877   2.132567   3.111957
     8  H    2.145240   3.433881   1.091228   2.912336   2.560351
     9  H    2.144820   3.150810   1.092019   3.405947   2.553380
    10  H    2.145107   2.727400   1.089787   2.682703   3.090559
                    6          7          8          9         10
     6  H    0.000000
     7  H    1.834699   0.000000
     8  H    4.340279   3.765803   0.000000
     9  H    3.946818   3.301887   1.765444   0.000000
    10  H    3.784998   2.541867   1.767567   1.772489   0.000000
 Symmetry turned off by external request.
 Stoichiometry    C3H6O(1+,2)
 Framework group  C1[X(C3H6O)]
 Deg. of freedom    24
 Full point group                 C1      NOp   1
 Rotational constants (GHZ):     18.2269979      6.6669563      5.9403328
 Standard basis: CC-pVDZ (5D, 7F)
 The following finite field(s) will be applied:
 An electric field of             -0.0100  0.0000  0.0000
 AO basis set in the form of general basis input (Overlap normalization):
      1 0
 S   7 1.00       0.000000000000
      0.6665000000D+04  0.6935163173D-03
      0.1000000000D+04  0.5341502433D-02
      0.2280000000D+03  0.2713667141D-01
      0.6471000000D+02  0.1019923853D+00
      0.2106000000D+02  0.2755086365D+00
      0.7495000000D+01  0.4510864331D+00
      0.2797000000D+01  0.2875657448D+00
 S   7 1.00       0.000000000000
      0.6665000000D+04  0.7733547404D-05
      0.2280000000D+03  0.2780721367D-03
      0.6471000000D+02 -0.2578756542D-02
      0.2106000000D+02 -0.8950876838D-02
      0.7495000000D+01 -0.1060588547D+00
      0.2797000000D+01 -0.1315176856D+00
      0.5215000000D+00  0.1099486598D+01
 S   1 1.00       0.000000000000
      0.1596000000D+00  0.1000000000D+01
 P   3 1.00       0.000000000000
      0.9439000000D+01  0.5697925159D-01
      0.2002000000D+01  0.3132072115D+00
      0.5456000000D+00  0.7603767417D+00
 P   1 1.00       0.000000000000
      0.1517000000D+00  0.1000000000D+01
 D   1 1.00       0.000000000000
      0.5500000000D+00  0.1000000000D+01
 ****
      2 0
 S   7 1.00       0.000000000000
      0.6665000000D+04  0.6935163173D-03
      0.1000000000D+04  0.5341502433D-02
      0.2280000000D+03  0.2713667141D-01
      0.6471000000D+02  0.1019923853D+00
      0.2106000000D+02  0.2755086365D+00
      0.7495000000D+01  0.4510864331D+00
      0.2797000000D+01  0.2875657448D+00
 S   7 1.00       0.000000000000
      0.6665000000D+04  0.7733547404D-05
      0.2280000000D+03  0.2780721367D-03
      0.6471000000D+02 -0.2578756542D-02
      0.2106000000D+02 -0.8950876838D-02
      0.7495000000D+01 -0.1060588547D+00
      0.2797000000D+01 -0.1315176856D+00
      0.5215000000D+00  0.1099486598D+01
 S   1 1.00       0.000000000000
      0.1596000000D+00  0.1000000000D+01
 P   3 1.00       0.000000000000
      0.9439000000D+01  0.5697925159D-01
      0.2002000000D+01  0.3132072115D+00
      0.5456000000D+00  0.7603767417D+00
 P   1 1.00       0.000000000000
      0.1517000000D+00  0.1000000000D+01
 D   1 1.00       0.000000000000
      0.5500000000D+00  0.1000000000D+01
 ****
      3 0
 S   7 1.00       0.000000000000
      0.6665000000D+04  0.6935163173D-03
      0.1000000000D+04  0.5341502433D-02
      0.2280000000D+03  0.2713667141D-01
      0.6471000000D+02  0.1019923853D+00
      0.2106000000D+02  0.2755086365D+00
      0.7495000000D+01  0.4510864331D+00
      0.2797000000D+01  0.2875657448D+00
 S   7 1.00       0.000000000000
      0.6665000000D+04  0.7733547404D-05
      0.2280000000D+03  0.2780721367D-03
      0.6471000000D+02 -0.2578756542D-02
      0.2106000000D+02 -0.8950876838D-02
      0.7495000000D+01 -0.1060588547D+00
      0.2797000000D+01 -0.1315176856D+00
      0.5215000000D+00  0.1099486598D+01
 S   1 1.00       0.000000000000
      0.1596000000D+00  0.1000000000D+01
 P   3 1.00       0.000000000000
      0.9439000000D+01  0.5697925159D-01
      0.2002000000D+01  0.3132072115D+00
      0.5456000000D+00  0.7603767417D+00
 P   1 1.00       0.000000000000
      0.1517000000D+00  0.1000000000D+01
 D   1 1.00       0.000000000000
      0.5500000000D+00  0.1000000000D+01
 ****
      4 0
 S   7 1.00       0.000000000000
      0.1172000000D+05  0.7118644339D-03
      0.1759000000D+04  0.5485201992D-02
      0.4008000000D+03  0.2790992963D-01
      0.1137000000D+03  0.1051332075D+00
      0.3703000000D+02  0.2840024898D+00
      0.1327000000D+02  0.4516739459D+00
      0.5025000000D+01  0.2732081255D+00
 S   7 1.00       0.000000000000
      0.1172000000D+05  0.7690300460D-05
      0.4008000000D+03  0.3134845790D-03
      0.1137000000D+03 -0.2966148530D-02
      0.3703000000D+02 -0.1087535430D-01
      0.1327000000D+02 -0.1207538168D+00
      0.5025000000D+01 -0.1062752639D+00
      0.1013000000D+01  0.1095975478D+01
 S   1 1.00       0.000000000000
      0.3023000000D+00  0.1000000000D+01
 P   3 1.00       0.000000000000
      0.1770000000D+02  0.6267916628D-01
      0.3854000000D+01  0.3335365659D+00
      0.1046000000D+01  0.7412396416D+00
 P   1 1.00       0.000000000000
      0.2753000000D+00  0.1000000000D+01
 D   1 1.00       0.000000000000
      0.1185000000D+01  0.1000000000D+01
 ****
      5 0
 S   3 1.00       0.000000000000
      0.1301000000D+02  0.3349872639D-01
      0.1962000000D+01  0.2348008012D+00
      0.4446000000D+00  0.8136829579D+00
 S   1 1.00       0.000000000000
      0.1220000000D+00  0.1000000000D+01
 P   1 1.00       0.000000000000
      0.7270000000D+00  0.1000000000D+01
 ****
      6 0
 S   3 1.00       0.000000000000
      0.1301000000D+02  0.3349872639D-01
      0.1962000000D+01  0.2348008012D+00
      0.4446000000D+00  0.8136829579D+00
 S   1 1.00       0.000000000000
      0.1220000000D+00  0.1000000000D+01
 P   1 1.00       0.000000000000
      0.7270000000D+00  0.1000000000D+01
 ****
      7 0
 S   3 1.00       0.000000000000
      0.1301000000D+02  0.3349872639D-01
      0.1962000000D+01  0.2348008012D+00
      0.4446000000D+00  0.8136829579D+00
 S   1 1.00       0.000000000000
      0.1220000000D+00  0.1000000000D+01
 P   1 1.00       0.000000000000
      0.7270000000D+00  0.1000000000D+01
 ****
      8 0
 S   3 1.00       0.000000000000
      0.1301000000D+02  0.3349872639D-01
      0.1962000000D+01  0.2348008012D+00
      0.4446000000D+00  0.8136829579D+00
 S   1 1.00       0.000000000000
      0.1220000000D+00  0.1000000000D+01
 P   1 1.00       0.000000000000
      0.7270000000D+00  0.1000000000D+01
 ****
      9 0
 S   3 1.00       0.000000000000
      0.1301000000D+02  0.3349872639D-01
      0.1962000000D+01  0.2348008012D+00
      0.4446000000D+00  0.8136829579D+00
 S   1 1.00       0.000000000000
      0.1220000000D+00  0.1000000000D+01
 P   1 1.00       0.000000000000
      0.7270000000D+00  0.1000000000D+01
 ****
     10 0
 S   3 1.00       0.000000000000
      0.1301000000D+02  0.3349872639D-01
      0.1962000000D+01  0.2348008012D+00
      0.4446000000D+00  0.8136829579D+00
 S   1 1.00       0.000000000000
      0.1220000000D+00  0.1000000000D+01
 P   1 1.00       0.000000000000
      0.7270000000D+00  0.1000000000D+01
 ****

    86 basis functions,   174 primitive gaussians,    90 cartesian basis functions
    16 alpha electrons       15 beta electrons
       nuclear repulsion energy       124.7885346707 Hartrees.
 NAtoms=   10 NActive=   10 NUniq=   10 SFac= 1.00D+00 NAtFMM=   60 NAOKFM=F Big=F
 Integral buffers will be    131072 words long.
 Raffenetti 2 integral format.
 Two-electron integral symmetry is turned off.
 One-electron integrals computed using PRISM.
 NBasis=    86 RedAO= T EigKep=  3.18D-03  NBF=    86
 NBsUse=    86 1.00D-06 EigRej= -1.00D+00 NBFU=    86
 The nuclear repulsion energy is now       124.7885347085 hartrees.
 ExpMin= 1.22D-01 ExpMax= 1.17D+04 ExpMxC= 4.01D+02 IAcc=1 IRadAn=         1 AccDes= 0.00D+00
 Harris functional with IExCor=  205 and IRadAn=       1 diagonalized for initial guess.
 HarFok:  IExCor=  205 AccDes= 0.00D+00 IRadAn=         1 IDoV= 1 UseB2=F ITyADJ=14
 ICtDFT=  3500011 ScaDFX=  1.000000  1.000000  1.000000  1.000000
 FoFCou: FMM=F IPFlag=           0 FMFlag=      100000 FMFlg1=           0
         NFxFlg=           0 DoJE=T BraDBF=F KetDBF=T FulRan=T
         wScrn=  0.000000 ICntrl=       500 IOpCl=  0 I1Cent=   200000004 NGrid=           0
         NMat0=    1 NMatS0=      1 NMatT0=    0 NMatD0=    1 NMtDS0=    0 NMtDT0=    0
 Symmetry not used in FoFCou.
 Initial guess <Sx>= 0.0000 <Sy>= 0.0000 <Sz>= 0.5000 <S**2>= 0.7500 S= 0.5000
 Keep R1 and R2 ints in memory in canonical form, NReq=14901755.
 Requested convergence on RMS density matrix=1.00D-08 within 128 cycles.
 Requested convergence on MAX density matrix=1.00D-06.
 Requested convergence on             energy=1.00D-06.
 No special actions if energy rises.
 SCF Done:  E(UHF) =  -191.595332941     A.U. after   21 cycles
            NFock= 21  Conv=0.90D-08     -V/T= 1.9998
 <Sx>= 0.0000 <Sy>= 0.0000 <Sz>= 0.5000 <S**2>= 0.7621 S= 0.5060
 <L.S>= 0.000000000000E+00
 Annihilation of the first spin contaminant:
 S**2 before annihilation     0.7621,   after     0.7501

 **********************************************************************

            Population analysis using the SCF density.

 **********************************************************************

 Alpha  occ. eigenvalues --  -21.02121 -11.56858 -11.56147 -11.42390  -1.84077
 Alpha  occ. eigenvalues --   -1.28407  -1.20414  -1.11143  -1.06517  -0.96722
 Alpha  occ. eigenvalues --   -0.90907  -0.84730  -0.79834  -0.76339  -0.73298
 Alpha  occ. eigenvalues --   -0.70107
 Alpha virt. eigenvalues --   -0.02513  -0.00743   0.01215   0.02662   0.04031
 Alpha virt. eigenvalues --    0.08008   0.11159   0.12626   0.18062   0.24554
 Alpha virt. eigenvalues --    0.34041   0.37503   0.43798   0.46358   0.48769
 Alpha virt. eigenvalues --    0.50220   0.54149   0.57853   0.60244   0.63647
 Alpha virt. eigenvalues --    0.65346   0.69421   0.70183   0.73300   0.75004
 Alpha virt. eigenvalues --    0.78110   0.83133   0.85300   0.95966   1.03632
 Alpha virt. eigenvalues --    1.08651   1.12916   1.23443   1.26265   1.29703
 Alpha virt. eigenvalues --    1.41635   1.46771   1.49865   1.50913   1.52380
 Alpha virt. eigenvalues --    1.57458   1.65214   1.66909   1.69342   1.70697
 Alpha virt. eigenvalues --    1.74152   1.78487   1.80345   1.81761   1.82614
 Alpha virt. eigenvalues --    1.92049   1.95359   2.01652   2.12689   2.16515
 Alpha virt. eigenvalues --    2.27056   2.29782   2.34717   2.38035   2.57324
 Alpha virt. eigenvalues --    2.58690   2.60241   2.66787   2.70780   2.79173
 Alpha virt. eigenvalues --    2.80093   2.97638   3.01659   3.18200   3.28597
  Beta  occ. eigenvalues --  -20.97602 -11.57058 -11.56314 -11.42267  -1.71914
  Beta  occ. eigenvalues --   -1.24611  -1.18726  -1.07974  -0.96175  -0.91090
  Beta  occ. eigenvalues --   -0.86754  -0.79031  -0.75771  -0.72885  -0.69736
  Beta virt. eigenvalues --   -0.22516  -0.02198   0.00345   0.01725   0.03717
  Beta virt. eigenvalues --    0.04422   0.08492   0.11251   0.12869   0.18471
  Beta virt. eigenvalues --    0.24729   0.34428   0.38845   0.44033   0.47634
  Beta virt. eigenvalues --    0.49477   0.50977   0.54559   0.58134   0.60734
  Beta virt. eigenvalues --    0.63968   0.65512   0.70265   0.70428   0.74213
  Beta virt. eigenvalues --    0.75827   0.78430   0.84540   0.90078   0.97343
  Beta virt. eigenvalues --    1.08449   1.12471   1.13727   1.24105   1.26852
  Beta virt. eigenvalues --    1.30227   1.41853   1.47859   1.50714   1.51332
  Beta virt. eigenvalues --    1.53431   1.58364   1.65657   1.68310   1.69948
  Beta virt. eigenvalues --    1.71173   1.74503   1.78783   1.80953   1.82376
  Beta virt. eigenvalues --    1.83385   1.92882   1.95719   2.02212   2.12870
  Beta virt. eigenvalues --    2.17374   2.27550   2.30802   2.35045   2.38400
  Beta virt. eigenvalues --    2.58191   2.58896   2.61235   2.67464   2.72310
  Beta virt. eigenvalues --    2.82506   2.85827   3.03407   3.10259   3.24753
  Beta virt. eigenvalues --    3.30754
     Alpha Molecular Orbital Coefficients:
                           1         2         3         4         5
                           O         O         O         O         O
     Eigenvalues --   -21.02121 -11.56858 -11.56147 -11.42390  -1.84077
   1 1   C  1S          0.00001   0.05647   0.99577  -0.00249  -0.06212
   2        2S          0.00019   0.00094   0.01851   0.00008   0.10950
   3        3S          0.00215   0.00128  -0.01115   0.00047   0.02882
   4        4PX        -0.00032  -0.00004  -0.00166   0.00001  -0.07369
   5        4PY        -0.00035  -0.00018  -0.00062  -0.00001  -0.02862
   6        4PZ        -0.00015  -0.00005  -0.00094   0.00001  -0.05178
   7        5PX        -0.00070  -0.00140   0.00059   0.00158  -0.00450
   8        5PY        -0.00073   0.00038  -0.00059  -0.00021   0.01114
   9        5PZ        -0.00098  -0.00002   0.00247   0.00020  -0.00790
  10        6D 0        0.00013   0.00007   0.00009   0.00015  -0.00829
  11        6D+1       -0.00012  -0.00022   0.00037   0.00034   0.01925
  12        6D-1        0.00001   0.00020  -0.00014   0.00004   0.00973
  13        6D+2        0.00000  -0.00033   0.00042  -0.00038   0.00702
  14        6D-2        0.00015   0.00029  -0.00011  -0.00005   0.00951
  15 2   C  1S          0.00003   0.99569  -0.05664   0.00001  -0.06262
  16        2S          0.00034   0.01808  -0.00125  -0.00038   0.11099
  17        3S          0.00144  -0.00781   0.00438   0.00178   0.01042
  18        4PX        -0.00007   0.00031  -0.00013  -0.00008   0.03457
  19        4PY        -0.00046  -0.00171   0.00009   0.00002  -0.09113
  20        4PZ        -0.00014  -0.00008  -0.00004   0.00000   0.00049
  21        5PX        -0.00009  -0.00049   0.00151   0.00091   0.00127
  22        5PY        -0.00084   0.00050  -0.00083  -0.00056   0.00003
  23        5PZ        -0.00012  -0.00033   0.00013   0.00003   0.00329
  24        6D 0        0.00016  -0.00015   0.00013   0.00005  -0.01619
  25        6D+1       -0.00020  -0.00010  -0.00032   0.00000   0.00689
  26        6D-1       -0.00003  -0.00022   0.00025  -0.00018   0.00536
  27        6D+2       -0.00003  -0.00003  -0.00016   0.00000  -0.01770
  28        6D-2        0.00009  -0.00050   0.00048  -0.00002  -0.00996
  29 3   C  1S          0.00001   0.00005   0.00234   0.99728  -0.00629
  30        2S         -0.00005  -0.00027  -0.00019   0.01889   0.01465
  31        3S         -0.00049   0.00103   0.00294  -0.00945   0.00251
  32        4PX         0.00013   0.00003  -0.00016  -0.00067  -0.01433
  33        4PY         0.00003  -0.00002  -0.00001  -0.00002  -0.00283
  34        4PZ        -0.00005   0.00001   0.00014   0.00020   0.00246
  35        5PX         0.00027  -0.00065  -0.00195   0.00071  -0.00109
  36        5PY         0.00001  -0.00013  -0.00010   0.00008  -0.00361
  37        5PZ         0.00021   0.00009  -0.00029  -0.00053   0.00082
  38        6D 0        0.00015   0.00007  -0.00016   0.00000  -0.00405
  39        6D+1       -0.00002  -0.00004   0.00003   0.00006  -0.00117
  40        6D-1        0.00003  -0.00011   0.00010   0.00002  -0.00166
  41        6D+2       -0.00008   0.00007   0.00005  -0.00003   0.00432
  42        6D-2        0.00001   0.00002  -0.00004   0.00001   0.00122
  43 4   O  1S          0.99697  -0.00004  -0.00004   0.00000  -0.20141
  44        2S          0.01745   0.00057   0.00040  -0.00012   0.44638
  45        3S         -0.00713  -0.00082  -0.00017   0.00005   0.43894
  46        4PX         0.00049   0.00002   0.00006  -0.00010   0.03594
  47        4PY         0.00157   0.00017   0.00014  -0.00001   0.10249
  48        4PZ         0.00063   0.00005   0.00008  -0.00001   0.04192
  49        5PX        -0.00085  -0.00056   0.00032   0.00026   0.01717
  50        5PY        -0.00210  -0.00090  -0.00105  -0.00006   0.05610
  51        5PZ        -0.00093  -0.00055  -0.00021   0.00011   0.02403
  52        6D 0        0.00030   0.00021   0.00007   0.00000   0.00209
  53        6D+1       -0.00038  -0.00006  -0.00025  -0.00002  -0.00515
  54        6D-1       -0.00018  -0.00016  -0.00022   0.00001   0.00303
  55        6D+2        0.00013   0.00034   0.00003   0.00001  -0.00413
  56        6D-2        0.00004   0.00001  -0.00024   0.00000   0.00634
  57 5   H  1S         -0.00027  -0.00011   0.00007  -0.00012   0.02692
  58        2S          0.00008   0.00009   0.00056   0.00000   0.00182
  59        3PX         0.00014   0.00006  -0.00007  -0.00007  -0.00257
  60        3PY         0.00006  -0.00003   0.00000   0.00001  -0.00044
  61        3PZ         0.00014  -0.00006   0.00016  -0.00003  -0.00764
  62 6   H  1S         -0.00033   0.00009  -0.00021  -0.00001   0.02660
  63        2S         -0.00012   0.00123   0.00020   0.00026  -0.00058
  64        3PX        -0.00011  -0.00010  -0.00006  -0.00001   0.00568
  65        3PY         0.00018   0.00001   0.00004   0.00006  -0.00542
  66        3PZ         0.00000   0.00021  -0.00009  -0.00004  -0.00343
  67 7   H  1S         -0.00033   0.00016  -0.00023  -0.00027   0.02701
  68        2S         -0.00004   0.00114  -0.00011  -0.00004   0.00061
  69        3PX        -0.00008   0.00012  -0.00011  -0.00004   0.00072
  70        3PY         0.00020   0.00005  -0.00001   0.00008  -0.00704
  71        3PZ        -0.00005  -0.00011   0.00004  -0.00004   0.00473
  72 8   H  1S          0.00006  -0.00001  -0.00014   0.00022   0.00137
  73        2S         -0.00018   0.00008   0.00036   0.00123   0.00112
  74        3PX         0.00005   0.00001  -0.00002   0.00014  -0.00110
  75        3PY         0.00003   0.00003   0.00003  -0.00027   0.00000
  76        3PZ        -0.00003  -0.00001   0.00011   0.00006  -0.00008
  77 9   H  1S         -0.00001   0.00002  -0.00006   0.00019   0.00251
  78        2S          0.00017   0.00012   0.00049   0.00130  -0.00158
  79        3PX        -0.00005   0.00001  -0.00002   0.00013  -0.00067
  80        3PY        -0.00001  -0.00004  -0.00007   0.00025  -0.00002
  81        3PZ        -0.00002  -0.00002   0.00005   0.00017   0.00033
  82 10  H  1S         -0.00003  -0.00017  -0.00017   0.00017   0.00518
  83        2S          0.00010  -0.00003  -0.00032   0.00112  -0.00021
  84        3PX         0.00005   0.00000  -0.00005  -0.00007   0.00016
  85        3PY         0.00003   0.00000  -0.00001   0.00007  -0.00068
  86        3PZ        -0.00004  -0.00003   0.00010  -0.00035   0.00109
                           6         7         8         9        10
                           O         O         O         O         O
     Eigenvalues --    -1.28407  -1.20414  -1.11143  -1.06517  -0.96722
   1 1   C  1S          0.13276   0.04918  -0.06498  -0.02427   0.04040
   2        2S         -0.27282  -0.10504   0.14841   0.06213  -0.08897
   3        3S         -0.25104  -0.09667   0.06678   0.01553  -0.10508
   4        4PX         0.00098  -0.15562  -0.13419  -0.09455  -0.08519
   5        4PY        -0.06155   0.08519  -0.07809  -0.02649   0.02343
   6        4PZ         0.03560   0.01980   0.11336  -0.11480  -0.12955
   7        5PX        -0.00629  -0.04919  -0.04631  -0.02465   0.02136
   8        5PY        -0.03238   0.02350  -0.01920  -0.00294   0.01721
   9        5PZ         0.05923   0.02733   0.05027  -0.01822  -0.04114
  10        6D 0        0.00406  -0.00542  -0.01180   0.01365  -0.00901
  11        6D+1        0.00002   0.01545   0.00685   0.02762   0.01256
  12        6D-1        0.00730  -0.01126   0.00508   0.01509   0.00165
  13        6D+2       -0.01910   0.00122   0.00015  -0.00747   0.01999
  14        6D-2        0.00950  -0.01995   0.01860   0.00515   0.00697
  15 2   C  1S          0.09125  -0.13028   0.04554   0.02711   0.04118
  16        2S         -0.19736   0.27713  -0.09800  -0.05472  -0.08363
  17        3S         -0.08329   0.19342  -0.07239  -0.05610  -0.10383
  18        4PX        -0.09015  -0.03379   0.04365   0.16475   0.08672
  19        4PY        -0.00398  -0.02358  -0.04396  -0.03442  -0.26865
  20        4PZ        -0.04325   0.00321   0.15219  -0.06153   0.01318
  21        5PX         0.00093  -0.00328   0.02049   0.05114   0.03236
  22        5PY        -0.01209   0.00077  -0.00782   0.00512  -0.07592
  23        5PZ        -0.02153  -0.00609   0.04297  -0.02039   0.01414
  24        6D 0        0.00269  -0.00365  -0.00314  -0.00246  -0.02813
  25        6D+1       -0.00847  -0.00214   0.01331   0.00371   0.00463
  26        6D-1        0.00662  -0.00150  -0.02203   0.00970   0.00784
  27        6D+2       -0.01185  -0.01278   0.00440   0.00599  -0.03600
  28        6D-2        0.01383  -0.00066  -0.00490  -0.02261  -0.00749
  29 3   C  1S          0.08673   0.10861   0.07842   0.08088  -0.04610
  30        2S         -0.17676  -0.21627  -0.15966  -0.15650   0.09696
  31        3S         -0.05617  -0.12424  -0.08769  -0.12059   0.05727
  32        4PX         0.06378   0.04184  -0.00810  -0.05440   0.06357
  33        4PY        -0.00045   0.01594  -0.00991  -0.01167   0.01693
  34        4PZ        -0.02491  -0.02214   0.02326  -0.00809  -0.05441
  35        5PX        -0.01340   0.00903  -0.00379  -0.00521   0.02989
  36        5PY        -0.00225   0.00328  -0.00951  -0.00133   0.00716
  37        5PZ        -0.01332  -0.00529   0.00923  -0.00203  -0.02735
  38        6D 0        0.00276   0.00046  -0.00152  -0.00363  -0.00224
  39        6D+1        0.00791   0.00744  -0.00150  -0.00186   0.01099
  40        6D-1        0.00008   0.00277  -0.00271  -0.00162   0.00094
  41        6D+2       -0.00880  -0.00532   0.00061   0.00525  -0.00428
  42        6D-2       -0.00012  -0.00405   0.00316  -0.00030  -0.00137
  43 4   O  1S         -0.09712   0.03951   0.01872   0.02258   0.02086
  44        2S          0.22639  -0.09575  -0.04403  -0.05085  -0.04600
  45        3S          0.31018  -0.12427  -0.06600  -0.08509  -0.08615
  46        4PX        -0.10220  -0.15980   0.04127   0.43299  -0.15831
  47        4PY        -0.16060   0.19553  -0.06293   0.17614   0.37748
  48        4PZ        -0.06921   0.02079   0.43122  -0.24799   0.16960
  49        5PX        -0.03954  -0.07797   0.02318   0.24209  -0.09579
  50        5PY        -0.07213   0.09726  -0.03883   0.09310   0.21127
  51        5PZ        -0.03085   0.00865   0.23340  -0.14356   0.09967
  52        6D 0        0.00881  -0.00684   0.01018  -0.01085  -0.00747
  53        6D+1       -0.01043  -0.00211   0.01042   0.00758  -0.00063
  54        6D-1       -0.00886   0.00487   0.01831  -0.00461   0.01157
  55        6D+2        0.00701  -0.01663   0.00558  -0.00103  -0.01711
  56        6D-2       -0.00608  -0.00870   0.00385   0.02050  -0.00165
  57 5   H  1S         -0.10551  -0.05090   0.15392  -0.03588  -0.14923
  58        2S         -0.01374  -0.01012   0.00522  -0.00856  -0.02332
  59        3PX         0.00091  -0.00232  -0.00141  -0.00348  -0.00248
  60        3PY        -0.00371   0.00130   0.00346  -0.00375  -0.00289
  61        3PZ         0.01416   0.00693  -0.01824   0.00234   0.01358
  62 6   H  1S         -0.07039   0.15446  -0.02385  -0.14408  -0.14716
  63        2S          0.00716   0.01016  -0.00568  -0.02222  -0.02949
  64        3PX        -0.00981   0.01434  -0.00020  -0.01117  -0.00974
  65        3PY         0.00291  -0.00568   0.00162   0.00124  -0.00299
  66        3PZ         0.00431  -0.01343   0.00485   0.01053   0.01019
  67 7   H  1S         -0.08061   0.12585  -0.14485  -0.00470  -0.16209
  68        2S         -0.00373   0.00183  -0.01483  -0.00907  -0.02426
  69        3PX        -0.00112  -0.00261   0.00372   0.00417   0.00367
  70        3PY         0.00603  -0.01073   0.00854   0.00074   0.00225
  71        3PZ        -0.00990   0.01377  -0.01445  -0.00017  -0.01582
  72 8   H  1S         -0.06004  -0.09553  -0.07473  -0.09346   0.06020
  73        2S          0.00104  -0.00059  -0.01013  -0.00921   0.00716
  74        3PX         0.00757   0.00807   0.00591   0.00505  -0.00252
  75        3PY        -0.00734  -0.01209  -0.00906  -0.01214   0.00648
  76        3PZ         0.00081   0.00179   0.00089   0.00090  -0.00151
  77 9   H  1S         -0.06462  -0.08747  -0.07843  -0.10545   0.06668
  78        2S          0.00763  -0.00469  -0.00416  -0.01447   0.00947
  79        3PX         0.00697   0.00829   0.00494   0.00664  -0.00361
  80        3PY         0.00692   0.01032   0.00856   0.01015  -0.00540
  81        3PZ         0.00429   0.00524   0.00579   0.00617  -0.00381
  82 10  H  1S         -0.07020  -0.08764  -0.09614  -0.07313   0.08771
  83        2S         -0.00681  -0.00718  -0.01283  -0.00964   0.00403
  84        3PX         0.00028   0.00074   0.00078  -0.00301   0.00305
  85        3PY         0.00198   0.00346   0.00254   0.00061  -0.00185
  86        3PZ        -0.01038  -0.01292  -0.01253  -0.01038   0.00979
                          11        12        13        14        15
                           O         O         O         O         O
     Eigenvalues --    -0.90907  -0.84730  -0.79834  -0.76339  -0.73298
   1 1   C  1S          0.05927   0.01985  -0.01722   0.03248   0.00407
   2        2S         -0.13505  -0.04480   0.04377  -0.07792  -0.00181
   3        3S         -0.14347  -0.08489   0.07695  -0.15282   0.00079
   4        4PX        -0.10585  -0.04972  -0.05819  -0.29928   0.10720
   5        4PY        -0.08363  -0.08105   0.27300   0.03531   0.01049
   6        4PZ        -0.22539   0.05362  -0.13767   0.22509  -0.14447
   7        5PX        -0.02789  -0.01114  -0.03039  -0.14941   0.09484
   8        5PY        -0.02563  -0.03467   0.12924   0.01166   0.01707
   9        5PZ        -0.09128   0.05215  -0.09992   0.16412  -0.04741
  10        6D 0       -0.01603  -0.00069  -0.00617  -0.00016  -0.02317
  11        6D+1        0.01405  -0.00025  -0.00896   0.01977   0.01443
  12        6D-1        0.02067   0.01931  -0.01056  -0.00626   0.00928
  13        6D+2       -0.00526   0.00503   0.00185  -0.01149   0.00989
  14        6D-2        0.02106  -0.00120  -0.01631   0.00394   0.01517
  15 2   C  1S         -0.03061  -0.00094  -0.00228  -0.00763  -0.00286
  16        2S          0.06790  -0.00142   0.01479   0.01980   0.01218
  17        3S          0.06262   0.01297  -0.00105   0.04759   0.02005
  18        4PX        -0.04692  -0.24160   0.15634   0.14218  -0.04495
  19        4PY         0.13987  -0.07833   0.00527   0.04130   0.00206
  20        4PZ         0.00171   0.29704   0.27302  -0.02542   0.00011
  21        5PX        -0.01826  -0.09760   0.06395   0.09186  -0.03906
  22        5PY         0.06007  -0.03736  -0.01184   0.01694   0.00931
  23        5PZ        -0.00378   0.13749   0.12812  -0.02854   0.01147
  24        6D 0        0.00559  -0.00485  -0.00428   0.01396  -0.00649
  25        6D+1       -0.01013  -0.01243   0.00894   0.01320  -0.00811
  26        6D-1       -0.01716   0.01430  -0.00126  -0.01010   0.00436
  27        6D+2        0.01605   0.00275   0.02904   0.00099   0.00230
  28        6D-2       -0.00530  -0.00724  -0.00356  -0.00660  -0.00104
  29 3   C  1S         -0.02584  -0.01526   0.00491  -0.01031  -0.00203
  30        2S          0.05400   0.02832  -0.00789   0.01018   0.01153
  31        3S          0.04735   0.05567  -0.03977   0.08948  -0.02048
  32        4PX         0.05088   0.09719  -0.11847   0.33991   0.03710
  33        4PY        -0.01712  -0.05839   0.21328   0.17879   0.14117
  34        4PZ        -0.11292  -0.01136  -0.07692  -0.03578   0.39283
  35        5PX         0.01093   0.01756  -0.03421   0.09787   0.04046
  36        5PY        -0.00799  -0.03283   0.09263   0.07886   0.08241
  37        5PZ        -0.04200  -0.00512  -0.03030   0.00366   0.17174
  38        6D 0       -0.00236  -0.00055   0.00435   0.00821  -0.01822
  39        6D+1        0.01321   0.00483   0.00205   0.01803  -0.00658
  40        6D-1       -0.00327  -0.00025   0.00788   0.00914   0.01482
  41        6D+2       -0.00319  -0.00804   0.01046  -0.02254   0.00285
  42        6D-2        0.00031  -0.00129  -0.00363  -0.00110   0.00851
  43 4   O  1S          0.00251   0.00264  -0.00973  -0.00735  -0.00606
  44        2S         -0.00500  -0.00830   0.03079   0.01826   0.01159
  45        3S         -0.00919  -0.00057   0.01416   0.03407   0.04812
  46        4PX         0.28400   0.21739  -0.06909   0.12608   0.07648
  47        4PY        -0.14580   0.11764  -0.20656  -0.05044   0.02763
  48        4PZ         0.33473  -0.23461  -0.09491  -0.07935   0.07610
  49        5PX         0.17136   0.15073  -0.05409   0.09640   0.05503
  50        5PY        -0.08886   0.08012  -0.15290  -0.04151   0.01920
  51        5PZ         0.20814  -0.15644  -0.06881  -0.05991   0.05888
  52        6D 0        0.00393  -0.00499   0.00236   0.00545  -0.00319
  53        6D+1        0.00704  -0.00025  -0.00762   0.00206   0.00034
  54        6D-1        0.00824   0.00158  -0.00006  -0.00155   0.00122
  55        6D+2        0.00981   0.00136   0.00364  -0.00276   0.00108
  56        6D-2        0.00975   0.00207   0.00171   0.00440   0.00222
  57 5   H  1S         -0.24389   0.02564  -0.13583   0.13737  -0.15199
  58        2S         -0.03303  -0.01238  -0.02035   0.02153  -0.06408
  59        3PX        -0.00048  -0.00085   0.00079  -0.00829   0.00056
  60        3PY        -0.00693  -0.00252   0.00347   0.00458  -0.00307
  61        3PZ         0.02003  -0.00359   0.01132  -0.00959   0.00755
  62 6   H  1S          0.10311   0.30193   0.05310  -0.09694   0.04099
  63        2S          0.02188   0.07299   0.01477  -0.03156   0.00652
  64        3PX         0.00693   0.01600   0.00805  -0.00367   0.00095
  65        3PY         0.00084  -0.01045   0.00004   0.00396  -0.00130
  66        3PZ        -0.00572  -0.01049   0.00543   0.00341  -0.00081
  67 7   H  1S          0.10262  -0.26364  -0.18255   0.06848  -0.00441
  68        2S          0.01400  -0.05305  -0.04515   0.02000  -0.01363
  69        3PX        -0.00244  -0.00385   0.00569   0.00457  -0.00250
  70        3PY        -0.00340   0.01321   0.01163  -0.00110  -0.00035
  71        3PZ         0.00843  -0.01479  -0.00802   0.00374   0.00092
  72 8   H  1S          0.05145   0.09045  -0.20206   0.03027  -0.04606
  73        2S          0.01081   0.01612  -0.03745   0.02048  -0.00776
  74        3PX        -0.00270  -0.00319   0.00876   0.00714   0.00396
  75        3PY         0.00434   0.00670  -0.01304   0.00801  -0.00028
  76        3PZ        -0.00363  -0.00063   0.00019  -0.00103   0.01190
  77 9   H  1S          0.00720   0.02119   0.04409   0.25530   0.25917
  78        2S          0.00758   0.01228   0.00460   0.06799   0.06218
  79        3PX        -0.00031   0.00162  -0.00622  -0.00675  -0.01494
  80        3PY        -0.00096  -0.00370   0.00286  -0.01463  -0.01493
  81        3PZ        -0.00240  -0.00136  -0.00504  -0.01164   0.00202
  82 10  H  1S          0.10546   0.00889   0.09640   0.05253  -0.31885
  83        2S          0.01620   0.00601   0.02356   0.02547  -0.10950
  84        3PX         0.00224   0.00156  -0.00245   0.00870   0.00425
  85        3PY        -0.00323  -0.00242   0.00455   0.00401   0.01019
  86        3PZ         0.00941   0.00180   0.00807   0.00446  -0.01886
                          16        17        18        19        20
                           O         V         V         V         V
     Eigenvalues --    -0.70107  -0.02513  -0.00743   0.01215   0.02662
   1 1   C  1S          0.00389  -0.03720   0.03000  -0.03929   0.01714
   2        2S         -0.01570   0.05835  -0.04149   0.05301  -0.05706
   3        3S         -0.02019   0.69618  -0.24517   0.70825   0.24763
   4        4PX         0.12679  -0.02036   0.12397  -0.03367   0.10639
   5        4PY        -0.19446  -0.02062  -0.16333   0.06261   0.36557
   6        4PZ         0.07400   0.09037   0.07768   0.15587   0.13733
   7        5PX         0.03047   0.07400   0.35671  -0.00445   0.17414
   8        5PY        -0.07613  -0.10415  -0.27699   0.18534   0.96609
   9        5PZ         0.03613   0.29013   0.21826   0.46847   0.30087
  10        6D 0        0.01802  -0.00753  -0.00531  -0.01474   0.00994
  11        6D+1       -0.00508  -0.00643  -0.00598  -0.01182   0.00732
  12        6D-1        0.00438  -0.00485   0.00584   0.00464   0.01102
  13        6D+2       -0.00580   0.00433  -0.00839   0.01708   0.00100
  14        6D-2        0.04114  -0.00611   0.00325   0.00702   0.01937
  15 2   C  1S          0.02198  -0.09625   0.01637   0.05595   0.02968
  16        2S         -0.05960   0.13853  -0.04516  -0.07760  -0.02988
  17        3S         -0.10078   1.63238   0.18569  -0.92782  -0.36212
  18        4PX        -0.25270  -0.15584   0.05440  -0.09552  -0.14657
  19        4PY        -0.02625  -0.00552   0.31947  -0.10482   0.02006
  20        4PZ        -0.12845   0.01742   0.16212   0.17501  -0.17270
  21        5PX        -0.13319  -0.58432   0.22389  -0.37180  -0.36897
  22        5PY        -0.01276   0.15825   0.90442  -0.39025   0.32593
  23        5PZ        -0.08284   0.07393   0.54305   0.61218  -0.51257
  24        6D 0       -0.00019   0.00734  -0.00279   0.00214  -0.00039
  25        6D+1       -0.01191   0.00119  -0.01086   0.01648   0.01016
  26        6D-1        0.00464  -0.01212   0.00326  -0.01160   0.01003
  27        6D+2       -0.01938   0.00933  -0.02228  -0.00490   0.00277
  28        6D-2        0.00370  -0.00106   0.00161   0.00801   0.01022
  29 3   C  1S          0.00053  -0.01708  -0.00382   0.00625  -0.01633
  30        2S         -0.00353   0.01766   0.00255  -0.00233   0.01600
  31        3S          0.01710   0.20806  -0.02796  -0.15691   0.20271
  32        4PX        -0.13145   0.02114  -0.01374   0.00255   0.01367
  33        4PY         0.31147   0.02014  -0.01998  -0.02925   0.00035
  34        4PZ        -0.10382  -0.03254  -0.00672   0.08249  -0.04272
  35        5PX        -0.07817   0.06841  -0.03760  -0.01071   0.09555
  36        5PY         0.17065   0.06267   0.01986  -0.11263  -0.08770
  37        5PZ        -0.04561  -0.14420  -0.06195   0.19207  -0.17335
  38        6D 0        0.01615   0.00362   0.00918  -0.00276   0.01377
  39        6D+1       -0.00179  -0.00031  -0.00445  -0.00187  -0.01141
  40        6D-1        0.00103   0.00153  -0.00729   0.00150   0.00503
  41        6D+2        0.00735  -0.00055  -0.00330  -0.00507  -0.00105
  42        6D-2        0.01781   0.00533   0.00798  -0.00709  -0.03716
  43 4   O  1S          0.00151   0.01404  -0.06699  -0.00690  -0.06376
  44        2S         -0.00985  -0.02587   0.10410   0.00922   0.10815
  45        3S          0.01077  -0.11558   0.79861   0.08961   0.75420
  46        4PX         0.08522   0.02546  -0.09842   0.05505   0.20951
  47        4PY         0.15769  -0.10153   0.26869   0.01092   0.07053
  48        4PZ         0.05951  -0.03370  -0.00620  -0.00644   0.15900
  49        5PX         0.06896   0.06596  -0.12649   0.11811   0.32399
  50        5PY         0.12527  -0.13297   0.48026   0.03786   0.17687
  51        5PZ         0.04853  -0.06579  -0.00280  -0.07183   0.26779
  52        6D 0       -0.00175  -0.00375   0.00303   0.00642  -0.00135
  53        6D+1        0.00426   0.00659  -0.00081   0.00029  -0.00644
  54        6D-1       -0.00025   0.00306   0.00405   0.00885  -0.00147
  55        6D+2        0.00106  -0.00171   0.00045   0.00237  -0.00787
  56        6D-2       -0.00219  -0.00836   0.00438  -0.00178   0.00043
  57 5   H  1S          0.10773  -0.01877   0.00114  -0.07195   0.02800
  58        2S          0.04560  -0.72031  -0.21026  -1.11918  -0.01152
  59        3PX         0.00442   0.00183   0.00667  -0.00001   0.00599
  60        3PY        -0.00469  -0.00169  -0.00307   0.00710   0.02367
  61        3PZ        -0.00669   0.00286  -0.00164   0.00668   0.00531
  62 6   H  1S          0.07100  -0.05043   0.00054  -0.01962  -0.01472
  63        2S          0.03485  -1.57811  -0.46573  -0.42783   0.23833
  64        3PX        -0.00176  -0.01257   0.00913  -0.00003  -0.00336
  65        3PY        -0.00313   0.00180   0.02126   0.00220   0.00027
  66        3PZ        -0.00876   0.00400   0.00613  -0.00338  -0.01133
  67 7   H  1S          0.03591  -0.03384   0.00290   0.05148  -0.02730
  68        2S          0.01790  -0.64195   0.04259   1.67626  -0.56246
  69        3PX        -0.00625  -0.00201   0.00688  -0.00316  -0.01155
  70        3PY        -0.00283  -0.00068   0.01528  -0.00794   0.00047
  71        3PZ        -0.00099  -0.00908   0.01180   0.00220  -0.00071
  72 8   H  1S         -0.30788  -0.03367  -0.01924   0.02773   0.08123
  73        2S         -0.08903  -0.08086  -0.09945  -0.07201   0.03231
  74        3PX         0.01592  -0.00107   0.00029   0.00254   0.00844
  75        3PY        -0.01470  -0.00018  -0.00001  -0.00054   0.00150
  76        3PZ        -0.00193  -0.00044   0.00102  -0.00060  -0.00300
  77 9   H  1S          0.10376   0.00813  -0.02529  -0.02933  -0.13445
  78        2S          0.02611  -0.12029   0.05518  -0.06314  -0.27356
  79        3PX        -0.01000   0.00332  -0.00203  -0.00251  -0.00873
  80        3PY         0.00176   0.00080  -0.00022   0.00131   0.00038
  81        3PZ        -0.00688   0.00029  -0.00009   0.00045   0.00513
  82 10  H  1S          0.16361   0.01825   0.03595   0.00646   0.03913
  83        2S          0.06271  -0.13703   0.03607   0.45371  -0.19774
  84        3PX        -0.00658   0.00470   0.00383  -0.00181   0.00465
  85        3PY         0.00575  -0.00236   0.00088   0.00139   0.00080
  86        3PZ         0.01180   0.00145   0.00003   0.00550  -0.00222
                          21        22        23        24        25
                           V         V         V         V         V
     Eigenvalues --     0.04031   0.08008   0.11159   0.12626   0.18062
   1 1   C  1S         -0.07270   0.03862  -0.04393  -0.00873  -0.09788
   2        2S          0.12570  -0.07256   0.04915   0.00794   0.12749
   3        3S          1.35406  -0.56269   1.13826   0.14830   3.02228
   4        4PX        -0.06544  -0.05829  -0.09385  -0.01616  -0.01571
   5        4PY        -0.12617   0.02343  -0.00242   0.00987   0.02523
   6        4PZ         0.06026  -0.07864  -0.07037  -0.00028  -0.29111
   7        5PX        -0.29384  -0.48157  -0.28073   0.03594   0.12251
   8        5PY        -0.28037   0.17108   0.30542  -0.47645   0.54995
   9        5PZ         0.55452  -0.56809  -0.13787  -0.03618  -1.98487
  10        6D 0        0.01176  -0.00921   0.01429  -0.00244   0.00702
  11        6D+1       -0.00838  -0.01344  -0.01919   0.00005   0.02607
  12        6D-1       -0.01175   0.00586   0.00135  -0.01460  -0.01828
  13        6D+2        0.00507   0.02093  -0.00848  -0.00983   0.02230
  14        6D-2       -0.00497   0.00344  -0.00527   0.02090  -0.02358
  15 2   C  1S          0.03633   0.01353   0.04200   0.01032   0.04398
  16        2S         -0.02773  -0.00693  -0.04333  -0.03648   0.06458
  17        3S         -0.76199  -0.55317  -0.88868   0.02748  -1.59150
  18        4PX         0.14301  -0.05360  -0.07964  -0.02127   0.02886
  19        4PY         0.06716  -0.01329   0.01734  -0.00196   0.07054
  20        4PZ        -0.09384   0.11360   0.01001   0.02895   0.05806
  21        5PX         0.38372  -0.46008  -0.74585   0.03896  -1.61596
  22        5PY         0.24291  -0.02976   0.41083   0.08236   0.90495
  23        5PZ        -0.73486   0.54721  -0.00263   0.16524  -0.01141
  24        6D 0        0.00028   0.00979  -0.00379  -0.01112  -0.02171
  25        6D+1        0.01379   0.00204   0.01796  -0.00192   0.00851
  26        6D-1       -0.00249  -0.01008   0.00038   0.00234   0.03219
  27        6D+2        0.00150  -0.01185   0.00930   0.01064   0.03047
  28        6D-2       -0.00462   0.00108   0.00898  -0.00056  -0.00482
  29 3   C  1S         -0.04786  -0.10679   0.02960   0.00562   0.05348
  30        2S          0.04459   0.11739  -0.03217  -0.00563   0.03983
  31        3S          1.05977   1.90746  -0.56858  -0.10454  -1.59265
  32        4PX         0.09515  -0.01272  -0.10455  -0.03155   0.17341
  33        4PY         0.01400  -0.00009  -0.03633   0.29671   0.01856
  34        4PZ        -0.05270  -0.03883  -0.24326  -0.01301   0.00520
  35        5PX         0.32054   0.14481  -0.44263  -0.14785   1.78282
  36        5PY         0.05361  -0.00133  -0.19627   1.47757   0.07505
  37        5PZ        -0.26438  -0.08696  -1.08424  -0.06695   0.15855
  38        6D 0       -0.00526   0.00117  -0.00903  -0.00284  -0.00085
  39        6D+1        0.00531   0.01069   0.00781   0.00053   0.00048
  40        6D-1       -0.00118   0.00113   0.00176   0.00064   0.00046
  41        6D+2       -0.00236  -0.00785   0.00234   0.00064  -0.00042
  42        6D-2        0.00850  -0.00086   0.00259  -0.01065   0.00533
  43 4   O  1S          0.00668  -0.00222  -0.00043   0.00264   0.00625
  44        2S         -0.01263   0.01903  -0.03161   0.01412  -0.01309
  45        3S         -0.06157  -0.05525   0.16179  -0.10512  -0.00989
  46        4PX        -0.09246   0.03993  -0.06620  -0.00524  -0.10083
  47        4PY         0.00036   0.00751   0.02231   0.03875  -0.01009
  48        4PZ        -0.06722  -0.04644  -0.03146  -0.04492  -0.01432
  49        5PX        -0.17699   0.01386  -0.10509  -0.09044  -0.36932
  50        5PY         0.03653   0.02542   0.10461   0.03956   0.10083
  51        5PZ        -0.08463  -0.07017  -0.05301  -0.07133  -0.03620
  52        6D 0        0.00158   0.00352  -0.00362   0.00133  -0.01120
  53        6D+1        0.01083  -0.00399   0.00546   0.00265   0.01042
  54        6D-1       -0.00015   0.00357   0.00454  -0.00074   0.00320
  55        6D+2        0.00354  -0.00044   0.00699  -0.00232   0.00560
  56        6D-2        0.00738   0.00027   0.00194  -0.00216   0.01200
  57 5   H  1S         -0.01640   0.03646  -0.00050   0.00972   0.03429
  58        2S         -1.33283   1.07418  -0.09697  -0.13071   1.26912
  59        3PX        -0.00367  -0.00860  -0.00970  -0.00369   0.00804
  60        3PY        -0.01005   0.00296  -0.00088  -0.00642  -0.01170
  61        3PZ         0.01048  -0.00521   0.00583   0.00107   0.00776
  62 6   H  1S          0.00440  -0.05191  -0.07828   0.02477  -0.03336
  63        2S          1.36112  -0.77376  -0.33547  -0.10577  -0.75104
  64        3PX         0.01107   0.00624  -0.00070  -0.00773  -0.00736
  65        3PY        -0.00003  -0.00172   0.00172   0.00068   0.01203
  66        3PZ        -0.00499   0.00655  -0.00597  -0.00046  -0.00946
  67 7   H  1S          0.00521   0.08149  -0.03019  -0.02000  -0.14528
  68        2S         -0.58101   0.97323   0.38471   0.21933   0.24154
  69        3PX        -0.00552  -0.00688  -0.00944   0.00296  -0.00025
  70        3PY         0.00726  -0.00003   0.00066   0.00233  -0.00471
  71        3PZ         0.00365   0.00316   0.00688   0.00232   0.01944
  72 8   H  1S         -0.03138  -0.00754   0.03713   0.09696  -0.05499
  73        2S         -0.48912  -0.73202   0.59567   2.00726  -0.41550
  74        3PX         0.00318  -0.00011  -0.00330  -0.01442  -0.00343
  75        3PY        -0.00568  -0.00760   0.00473   0.00776   0.00023
  76        3PZ         0.00042   0.00141  -0.00300   0.00157  -0.00641
  77 9   H  1S          0.01980  -0.01358   0.07042  -0.06060  -0.02446
  78        2S         -0.40081  -0.69179   1.53715  -1.37864  -0.68413
  79        3PX         0.00619  -0.00006  -0.00962   0.00977   0.00665
  80        3PY         0.00547   0.00650  -0.00518   0.00538   0.00382
  81        3PZ        -0.00002   0.00445  -0.00471  -0.00078  -0.00496
  82 10  H  1S         -0.02373  -0.03893  -0.09541  -0.03393   0.00943
  83        2S         -0.61265  -1.05823  -1.47649  -0.54364   0.77388
  84        3PX         0.00077  -0.00621   0.00674   0.00045   0.00753
  85        3PY         0.00149   0.00266   0.00176   0.00275  -0.00437
  86        3PZ        -0.00495  -0.00970  -0.01028  -0.00344   0.00622
                          26        27        28        29        30
                           V         V         V         V         V
     Eigenvalues --     0.24554   0.34041   0.37503   0.43798   0.46358
   1 1   C  1S          0.00959   0.03473  -0.02077   0.00136  -0.03257
   2        2S          0.05073  -0.01231  -0.00298  -0.05528   0.25844
   3        3S         -0.75537  -0.13948   0.77480   0.54222  -0.49892
   4        4PX         0.30539  -0.30380   0.28305   0.14672  -0.21003
   5        4PY        -0.00270   0.06039  -0.02537   0.11663  -0.26082
   6        4PZ         0.00643   0.06757   0.00131  -0.00888  -0.11326
   7        5PX         3.11806   0.85367  -0.19965  -0.67000   0.08202
   8        5PY        -0.43771  -0.20076   0.28157  -0.71584  -0.12155
   9        5PZ         0.24320   0.26512  -0.29351  -0.03774   0.02635
  10        6D 0        0.02321  -0.07485  -0.11643  -0.02843  -0.05670
  11        6D+1        0.00831   0.02549  -0.02745  -0.02772  -0.03124
  12        6D-1       -0.00608  -0.03113   0.07277  -0.02780   0.01332
  13        6D+2       -0.02874   0.04247   0.06801   0.04795  -0.03599
  14        6D-2       -0.01397  -0.09209  -0.00263  -0.00738   0.05315
  15 2   C  1S         -0.04251  -0.01991  -0.00675  -0.02578   0.01137
  16        2S          0.03055   0.31324   0.01768   0.25924  -0.23043
  17        3S          1.87921   0.16973  -0.39479  -0.49130   0.45967
  18        4PX         0.07929   0.30909   0.03396  -0.27029  -0.10697
  19        4PY        -0.20041  -0.33127   0.09535  -0.62456   0.28320
  20        4PZ         0.03604   0.13234  -0.00110  -0.28470   0.05445
  21        5PX         1.36882  -0.41670  -0.28173   0.12909   0.37700
  22        5PY        -1.45942   0.52598  -0.30712   1.20188  -0.46876
  23        5PZ         1.10081  -0.21790   0.35333   0.16852  -0.20404
  24        6D 0       -0.00974   0.02116   0.07099   0.02189  -0.01230
  25        6D+1       -0.03721   0.07364   0.06518   0.03086   0.03266
  26        6D-1        0.01609  -0.02704  -0.06465   0.00696  -0.04030
  27        6D+2        0.02585   0.01105  -0.12719   0.04514   0.01835
  28        6D-2       -0.00600   0.01057   0.05509   0.05783  -0.04639
  29 3   C  1S          0.03041  -0.01403   0.01139  -0.00454   0.00463
  30        2S         -0.00518   0.02496   0.14034   0.07403  -0.00979
  31        3S         -1.19402  -0.27703  -0.50788   0.18067   0.01848
  32        4PX         0.17230  -0.01153  -0.23468  -0.10864  -0.04158
  33        4PY        -0.01806   0.04359   0.10107  -0.19142  -0.16675
  34        4PZ        -0.19705  -0.09796   0.05143   0.12832  -0.13326
  35        5PX         1.19657  -0.21593   0.82318   0.11201   0.17627
  36        5PY         0.34994  -0.03747  -0.25808   0.74038   0.74237
  37        5PZ        -1.34841   0.13255  -0.17264  -0.05766   0.67129
  38        6D 0        0.01318   0.09184   0.05590  -0.03607   0.02615
  39        6D+1       -0.01034   0.03248  -0.04948  -0.03698  -0.00387
  40        6D-1       -0.01790  -0.01938   0.00296  -0.03551  -0.11151
  41        6D+2        0.00982  -0.04325   0.01555  -0.01164   0.00873
  42        6D-2       -0.00599   0.01591   0.05055  -0.04768  -0.08867
  43 4   O  1S         -0.00271  -0.00018   0.00340   0.01099   0.00821
  44        2S          0.00590  -0.08462   0.03675  -0.10295   0.02802
  45        3S          0.06901   0.52754  -0.26724   0.20022  -0.28477
  46        4PX         0.05827   0.02833   0.09232   0.08435   0.06373
  47        4PY        -0.06516  -0.11440   0.08634  -0.16620   0.03172
  48        4PZ         0.04813  -0.04441  -0.10135  -0.13426  -0.16785
  49        5PX         0.23247   0.09467   0.03349  -0.17548  -0.17822
  50        5PY        -0.14884   0.06958  -0.08705   0.12214  -0.06106
  51        5PZ         0.22323   0.09237  -0.10215  -0.06595   0.02418
  52        6D 0       -0.01471  -0.01819   0.01105  -0.01941   0.02090
  53        6D+1       -0.00223   0.01557  -0.00735  -0.00244   0.03071
  54        6D-1       -0.00363   0.01836   0.00537  -0.00104   0.00707
  55        6D+2       -0.00560  -0.02859   0.00930  -0.04807   0.02187
  56        6D-2       -0.00508  -0.00840  -0.01413  -0.03428   0.02292
  57 5   H  1S          0.03508  -0.20451  -0.39266  -0.09694  -0.27026
  58        2S         -0.12647   0.06678   0.40145  -0.04782   0.21450
  59        3PX         0.00848   0.02687  -0.00931  -0.03173  -0.00513
  60        3PY         0.00104  -0.00348   0.02752  -0.00636  -0.01719
  61        3PZ         0.00212  -0.02332  -0.05812   0.00340  -0.06286
  62 6   H  1S          0.15851  -0.28003  -0.40003  -0.26877   0.07897
  63        2S          0.16115   0.22315   0.21155   0.13513   0.16801
  64        3PX        -0.02673   0.00799   0.07676   0.00862   0.00257
  65        3PY        -0.00816  -0.00253  -0.03661  -0.04071  -0.01170
  66        3PZ         0.01435  -0.02247   0.00574  -0.02755  -0.00856
  67 7   H  1S          0.05104  -0.20159   0.46617  -0.14632   0.07500
  68        2S          1.16407  -0.03725  -0.06695  -0.19183  -0.19826
  69        3PX         0.01090  -0.01711  -0.03507  -0.02313  -0.00659
  70        3PY        -0.00753   0.01152   0.03399  -0.02823   0.02366
  71        3PZ        -0.00353  -0.01031  -0.02528   0.00382  -0.00253
  72 8   H  1S         -0.01578  -0.17520  -0.36384   0.25694   0.34208
  73        2S         -0.16042   0.17385   0.21041  -0.05737  -0.07237
  74        3PX         0.00176  -0.03520  -0.01224  -0.01725   0.02587
  75        3PY         0.00531   0.00430   0.01161  -0.00619  -0.00036
  76        3PZ         0.00512   0.02007  -0.00148   0.01229   0.04042
  77 9   H  1S         -0.11415  -0.00674  -0.02653  -0.28047  -0.62435
  78        2S          0.09788   0.04525  -0.02320   0.01145   0.07676
  79        3PX         0.00692  -0.00995  -0.01147  -0.00026  -0.01350
  80        3PY        -0.00826  -0.00512  -0.00652   0.00168  -0.01718
  81        3PZ        -0.00488   0.01260   0.00615  -0.02464  -0.00183
  82 10  H  1S          0.00464   0.39247   0.11431  -0.18112   0.35669
  83        2S         -1.25951  -0.28581  -0.02449   0.18510  -0.01594
  84        3PX         0.00865   0.01599   0.02217   0.01306  -0.00638
  85        3PY         0.00827   0.00377  -0.00728   0.02372   0.04799
  86        3PZ        -0.00604  -0.02504  -0.01658  -0.00262  -0.00876
                          31        32        33        34        35
                           V         V         V         V         V
     Eigenvalues --     0.48769   0.50220   0.54149   0.57853   0.60244
   1 1   C  1S         -0.01859   0.03081   0.06631   0.00926  -0.00711
   2        2S         -0.30719  -0.29297  -0.25986   0.04063   0.03102
   3        3S          0.21964   1.12655   0.68443  -0.17762  -0.02824
   4        4PX         0.24709   0.23510   0.10803  -0.25831  -0.01084
   5        4PY        -0.01756   0.62386  -0.59063   0.16442  -0.01138
   6        4PZ         0.13950   0.24732  -0.09534  -0.02165   0.17060
   7        5PX        -0.19092  -1.02841   0.10945   1.84068  -0.16304
   8        5PY        -0.20984  -0.84943   0.95841  -0.45578   0.08657
   9        5PZ         0.03007  -0.64895   0.25461   0.66005  -0.57324
  10        6D 0       -0.10500   0.00050   0.03344  -0.13220  -0.00782
  11        6D+1        0.07759   0.06290  -0.02907  -0.04193  -0.07859
  12        6D-1        0.06858  -0.04567  -0.09637   0.03602   0.02122
  13        6D+2       -0.14527   0.09739   0.11781   0.01757   0.03854
  14        6D-2        0.00353   0.03635  -0.09327  -0.00562   0.03611
  15 2   C  1S         -0.05895   0.00403  -0.05272   0.02411  -0.01613
  16        2S         -0.16734   0.04823   0.30557  -0.13469   0.09131
  17        3S          0.61754  -0.56979  -0.39626   1.40290  -0.45362
  18        4PX        -0.01336   0.27263   0.35981   0.05015  -0.55267
  19        4PY         0.26775   0.17932   0.06524   0.05988  -0.11772
  20        4PZ         0.03686   0.22221   0.26372   0.39434   0.54594
  21        5PX        -0.00976  -0.33588  -0.54396   0.37824   1.37043
  22        5PY        -0.43762   0.24203  -0.20234  -0.27425   0.29999
  23        5PZ        -0.05857  -0.55386  -0.50861  -0.44861  -1.61832
  24        6D 0       -0.10223  -0.03957   0.01882   0.03472   0.05253
  25        6D+1        0.11509  -0.04544  -0.03988   0.06140   0.15364
  26        6D-1        0.15565   0.05096   0.04318  -0.18435  -0.13469
  27        6D+2       -0.06414  -0.04902  -0.06566  -0.03647  -0.12069
  28        6D-2        0.11892  -0.01580   0.07876   0.00324   0.07661
  29 3   C  1S          0.00835  -0.00768  -0.01373  -0.00073   0.00381
  30        2S         -0.14974   0.15218   0.19467   0.04010  -0.02206
  31        3S          0.28913   0.01829  -0.31034  -0.77416  -0.00433
  32        4PX         0.32631  -0.29201  -0.33520   0.06779  -0.06579
  33        4PY        -0.01373  -0.13055  -0.02221  -0.08893   0.10354
  34        4PZ        -0.03742   0.01990   0.16654   0.20246  -0.12982
  35        5PX        -0.41620   0.41516   0.37375  -0.06610   0.70683
  36        5PY         0.15301   0.37270   0.12611   0.57947  -0.44046
  37        5PZ        -0.20620   0.35134  -0.43898  -1.46484   0.50542
  38        6D 0       -0.00852   0.04357  -0.02050  -0.07744  -0.02946
  39        6D+1       -0.05280  -0.01222   0.03035  -0.03554   0.08127
  40        6D-1       -0.01400  -0.02107  -0.03204   0.02635   0.01285
  41        6D+2       -0.00609   0.00360  -0.04988  -0.12478   0.04489
  42        6D-2       -0.00257  -0.07589   0.01187  -0.03038  -0.03332
  43 4   O  1S          0.02859  -0.00628  -0.00767  -0.01092   0.00404
  44        2S         -0.06232   0.21347  -0.00095   0.03561  -0.01356
  45        3S         -0.57428  -0.76529   0.24445   0.24057  -0.12976
  46        4PX         0.12587   0.18978   0.10009  -0.00392  -0.05050
  47        4PY         0.19143   0.22737  -0.16276   0.09683  -0.05223
  48        4PZ         0.08902   0.06452   0.04750  -0.06201   0.12896
  49        5PX        -0.05529  -0.21846   0.22671   0.06748  -0.07798
  50        5PY        -0.27945  -0.13229  -0.00425   0.03582  -0.02375
  51        5PZ        -0.06803  -0.05248   0.11163   0.12358   0.03658
  52        6D 0        0.01305   0.02337  -0.00191   0.00718   0.01118
  53        6D+1       -0.00843  -0.03478   0.01280   0.00489  -0.00312
  54        6D-1       -0.03189  -0.02434   0.01113   0.02297   0.01006
  55        6D+2        0.03182  -0.02164   0.00052   0.01136   0.00051
  56        6D-2       -0.02554  -0.01356   0.01220   0.00017  -0.01516
  57 5   H  1S         -0.29370   0.23317   0.37092  -0.19021   0.15752
  58        2S          0.06441  -0.10664  -0.32109   0.09648   0.32609
  59        3PX         0.00865   0.02457   0.00447  -0.00881   0.04197
  60        3PY         0.00067  -0.01101  -0.04463  -0.00142   0.00002
  61        3PZ        -0.05879   0.03841   0.09085  -0.02512  -0.03607
  62 6   H  1S         -0.51520   0.17795  -0.23729  -0.05417  -0.09218
  63        2S          0.20741  -0.03823   0.20642   0.49140   1.70499
  64        3PX         0.07275  -0.00911   0.06491   0.01817   0.18441
  65        3PY        -0.01212   0.02587  -0.01407  -0.02528  -0.03879
  66        3PZ        -0.06538   0.00608  -0.00905  -0.02591  -0.14831
  67 7   H  1S         -0.55425  -0.08740  -0.25393   0.37564  -0.13818
  68        2S          0.34979  -0.14716   0.02800  -0.88575  -1.11233
  69        3PX        -0.00523   0.00457   0.02995   0.01263  -0.00218
  70        3PY        -0.04935   0.01710  -0.02334   0.10374   0.06724
  71        3PZ         0.10382   0.01858   0.03917  -0.11620  -0.11691
  72 8   H  1S          0.11947   0.02695   0.13581   0.34407  -0.17446
  73        2S         -0.01993  -0.09514   0.14910  -0.05842  -0.40113
  74        3PX        -0.00851  -0.01836   0.01521  -0.05979   0.05773
  75        3PY         0.01235  -0.01311  -0.01248  -0.04192  -0.00215
  76        3PZ        -0.00651   0.02084  -0.00473  -0.02409   0.01287
  77 9   H  1S          0.02769  -0.23666  -0.10145   0.09240  -0.03845
  78        2S          0.05266   0.25537  -0.04790   0.07011  -0.12621
  79        3PX        -0.00549   0.02426  -0.03556  -0.05761   0.03966
  80        3PY        -0.01227  -0.01004   0.02632   0.04811  -0.02552
  81        3PZ        -0.02513  -0.01333   0.00853  -0.03823   0.01104
  82 10  H  1S         -0.09283   0.10169  -0.16726  -0.53324   0.05557
  83        2S         -0.26232  -0.01033  -0.06419  -0.23966   0.20704
  84        3PX         0.01144  -0.03083  -0.01896   0.05236  -0.08462
  85        3PY         0.01071   0.00503   0.01936   0.01681  -0.01470
  86        3PZ        -0.01358  -0.00306   0.00960   0.00487   0.04811
                          36        37        38        39        40
                           V         V         V         V         V
     Eigenvalues --     0.63647   0.65346   0.69421   0.70183   0.73300
   1 1   C  1S          0.02502   0.01120   0.01369   0.00605   0.00292
   2        2S         -0.03261  -0.00365  -0.15386  -0.05625  -0.14313
   3        3S         -1.02620  -0.26794  -0.09839  -0.10999  -0.04090
   4        4PX         0.08938  -0.53325  -0.26412  -0.11309   0.11214
   5        4PY         0.28423   0.12774   0.06457   0.01654   0.04132
   6        4PZ        -0.71034   0.19254  -0.29720  -0.10373  -0.22889
   7        5PX         0.17606   2.93184   0.79431   0.35574  -1.10700
   8        5PY        -0.84045  -0.41881  -0.45794  -0.24621  -0.28117
   9        5PZ         2.24623  -0.85554   1.69965   0.79819   1.90548
  10        6D 0        0.27520   0.02945  -0.03395  -0.01675  -0.06887
  11        6D+1        0.01618  -0.17376  -0.04342  -0.05510  -0.08217
  12        6D-1       -0.02082   0.03033  -0.02637   0.06803   0.00499
  13        6D+2       -0.09744   0.03633   0.04655   0.03892  -0.05848
  14        6D-2       -0.02126   0.07175   0.13539  -0.04315  -0.03433
  15 2   C  1S         -0.01168  -0.01864  -0.00432   0.00433   0.00200
  16        2S          0.08218   0.20491  -0.05352  -0.18746  -0.11709
  17        3S          0.76384   0.67393   0.99799   0.53436   0.24348
  18        4PX        -0.17547  -0.17139  -0.15406  -0.16184   0.06139
  19        4PY         0.15132   0.34227   0.06205   0.09489  -0.02671
  20        4PZ         0.08869  -0.37737  -0.06813   0.06814   0.10332
  21        5PX         0.91850   0.80703   1.14752   0.62868   0.40377
  22        5PY        -0.54727  -1.32767  -0.52228  -0.18930   0.37173
  23        5PZ         0.11870   1.74238  -0.20221  -0.48028  -1.25754
  24        6D 0       -0.08164  -0.11277   0.00057   0.00733   0.16156
  25        6D+1        0.10817   0.17504   0.05647   0.01863   0.01435
  26        6D-1       -0.06244   0.02854   0.10377   0.04138   0.16427
  27        6D+2        0.02263   0.03152   0.00357   0.05672   0.02926
  28        6D-2       -0.01097  -0.04890  -0.12812  -0.00543  -0.08366
  29 3   C  1S          0.01602  -0.01760  -0.03226  -0.01008  -0.02117
  30        2S         -0.16215   0.26499   0.23837   0.03564   0.17246
  31        3S          0.81722  -1.76060  -0.02555   0.19304   0.80962
  32        4PX         0.10572  -0.39866   0.00362   0.06273  -0.18627
  33        4PY        -0.01910  -0.08404   0.40383  -0.67528  -0.11251
  34        4PZ        -0.13368  -0.11189   0.44972   0.36352  -0.48990
  35        5PX        -0.83973   1.67605  -0.15697  -0.24009  -0.32716
  36        5PY         0.11681   0.35863  -0.98112   1.44932   0.21256
  37        5PZ         0.28577  -0.31662  -1.44659  -0.96579   1.04498
  38        6D 0       -0.06261  -0.08024   0.08870   0.20926  -0.19078
  39        6D+1       -0.00287   0.11661  -0.04570   0.05755  -0.05418
  40        6D-1        0.00295   0.06811  -0.10109   0.02851   0.09922
  41        6D+2        0.07856  -0.10823   0.02867   0.06324   0.00657
  42        6D-2        0.01553   0.03374  -0.16695   0.23576   0.09098
  43 4   O  1S         -0.00966  -0.00513   0.01616  -0.00880  -0.01135
  44        2S          0.02443   0.03795  -0.07951   0.03284   0.01928
  45        3S          0.16361  -0.02087  -0.01448   0.06146   0.16599
  46        4PX         0.06011   0.05883  -0.11771   0.00445  -0.10899
  47        4PY        -0.00557  -0.00280   0.05264  -0.03494  -0.06000
  48        4PZ        -0.08232  -0.00385   0.17495   0.03602   0.12016
  49        5PX         0.10990  -0.03368   0.08658   0.04731   0.25955
  50        5PY         0.09583   0.02561  -0.18630   0.09109   0.18606
  51        5PZ         0.02710   0.06390  -0.26486   0.01976  -0.14054
  52        6D 0       -0.01794   0.00285   0.01506   0.01108   0.03003
  53        6D+1       -0.00679   0.00942   0.02089   0.01239   0.03195
  54        6D-1        0.00608   0.01035  -0.00933  -0.00854  -0.03007
  55        6D+2        0.01785   0.01308  -0.00413   0.00442  -0.02289
  56        6D-2        0.01436   0.00526   0.00882   0.00982   0.00081
  57 5   H  1S          0.29289   0.12402  -0.14800  -0.04621  -0.49003
  58        2S         -1.94828   0.31345  -0.99356  -0.34160  -0.86306
  59        3PX         0.01324  -0.03710  -0.03802  -0.04415   0.01699
  60        3PY        -0.04237   0.02698  -0.01772   0.00571  -0.01529
  61        3PZ         0.24510  -0.01047   0.07440   0.02248   0.02082
  62 6   H  1S         -0.39128  -0.22125   0.16767   0.12487   0.33165
  63        2S          0.76381   0.23845   0.40487   0.32518   0.21708
  64        3PX         0.08582   0.00491   0.02888   0.00152   0.03071
  65        3PY        -0.04945   0.00254   0.07416   0.00857   0.09203
  66        3PZ        -0.04343  -0.08235   0.01600  -0.01564   0.07839
  67 7   H  1S          0.15276  -0.11620  -0.27761  -0.16105  -0.26114
  68        2S          0.09099   1.50584   0.31075  -0.11784  -0.66015
  69        3PX        -0.07037  -0.02101  -0.05702   0.01475  -0.04240
  70        3PY         0.04349  -0.06355  -0.06786  -0.01936  -0.10048
  71        3PZ         0.02364   0.14908   0.00377  -0.01217  -0.08309
  72 8   H  1S          0.07801  -0.10175  -0.20571  -0.41086  -0.10778
  73        2S          0.12317  -0.27785  -0.44843   1.62092   0.15557
  74        3PX         0.00381  -0.05001   0.02937  -0.14813  -0.03409
  75        3PY        -0.02075  -0.02759  -0.01648   0.20082  -0.00180
  76        3PZ         0.01737   0.00409   0.03342   0.00315  -0.05134
  77 9   H  1S          0.09558   0.04160  -0.36077   0.09352   0.02394
  78        2S         -0.01508  -0.67470   1.44937  -0.64888  -0.60388
  79        3PX         0.03865   0.02368  -0.14173   0.08003   0.03401
  80        3PY         0.02723   0.06057  -0.17039   0.02407   0.10019
  81        3PZ         0.01015   0.01871  -0.06698   0.08520   0.00840
  82 10  H  1S          0.13636  -0.24421  -0.05873   0.12920  -0.30443
  83        2S          0.18689   0.22095  -0.96299  -1.21772   1.13975
  84        3PX         0.03487  -0.03212   0.02622  -0.01032   0.06567
  85        3PY         0.00823  -0.02158   0.03843  -0.01974  -0.05149
  86        3PZ         0.00591   0.10330  -0.05419  -0.15970   0.19500
                          41        42        43        44        45
                           V         V         V         V         V
     Eigenvalues --     0.75004   0.78110   0.83133   0.85300   0.95966
   1 1   C  1S          0.00022  -0.02001  -0.00732   0.00554  -0.04531
   2        2S         -0.60938  -0.45458  -0.50397   0.08095  -0.88132
   3        3S          1.60771   1.72357   0.35174  -0.44732   2.69066
   4        4PX        -0.21957  -0.13788   0.00260   0.03892  -0.02721
   5        4PY        -0.14008  -0.06722   0.19635   0.11235  -0.04255
   6        4PZ        -0.03324  -0.11271   0.11133   0.11652   0.03403
   7        5PX         0.16875   1.03211   0.67558   0.30114  -0.40932
   8        5PY         0.07811  -0.20229  -0.06640  -0.24580   0.83328
   9        5PZ        -0.65449  -0.05945   0.19768  -0.65346  -0.23503
  10        6D 0        0.11742   0.00328   0.00796   0.07606   0.02081
  11        6D+1        0.01851  -0.02976  -0.23718  -0.07096  -0.03758
  12        6D-1        0.03996   0.07390  -0.15033   0.17620  -0.02162
  13        6D+2        0.00084  -0.02291  -0.19251   0.02906  -0.04363
  14        6D-2        0.06663   0.09802  -0.08037  -0.18768  -0.19453
  15 2   C  1S         -0.00790  -0.01322  -0.01634  -0.00795   0.04011
  16        2S         -0.73096  -0.63884  -0.63497  -0.30052   0.78087
  17        3S          1.69902   1.86470   0.96799   0.74450  -2.52426
  18        4PX         0.09497  -0.03230   0.07710   0.10958  -0.01448
  19        4PY        -0.27634  -0.21322   0.17407   0.04577   0.00213
  20        4PZ        -0.03342  -0.04348   0.05566  -0.07768  -0.00831
  21        5PX        -0.68191   0.28950  -0.21480  -0.55509  -0.74141
  22        5PY         0.35944  -0.03383   0.23100  -0.04009  -0.24217
  23        5PZ         0.26287   0.08334  -0.01539   0.83779  -0.41078
  24        6D 0       -0.04266   0.03795   0.10676   0.16417  -0.06169
  25        6D+1       -0.08504  -0.01155  -0.01771   0.08999  -0.06915
  26        6D-1       -0.09202   0.07405  -0.01049  -0.03185   0.03501
  27        6D+2       -0.09381  -0.05098   0.22573  -0.03659  -0.16429
  28        6D-2        0.07184  -0.00573   0.24356  -0.01265   0.00541
  29 3   C  1S         -0.04714   0.04391  -0.01492   0.00355  -0.01474
  30        2S          0.34961  -0.64134  -0.15251  -0.07899  -0.40637
  31        3S         -1.15049   0.62189   0.13774  -0.13569   0.60457
  32        4PX         0.12169  -0.43586  -0.04276   0.10147   0.00613
  33        4PY        -0.06517   0.01561   0.15610  -0.01108  -0.07513
  34        4PZ        -0.19183   0.10492   0.10578   0.03721  -0.00967
  35        5PX         0.31766   1.54356   0.36827  -0.02291   0.58349
  36        5PY         0.16829  -0.04390  -0.37919   0.51362   0.25257
  37        5PZ         0.60258  -0.52485  -0.29908   0.07436   0.01944
  38        6D 0       -0.03742   0.00485  -0.01031  -0.07331  -0.01442
  39        6D+1        0.04216   0.15713   0.08144   0.07095   0.11621
  40        6D-1        0.01416   0.02993  -0.03247  -0.24884   0.00452
  41        6D+2        0.04635  -0.13927   0.02531  -0.01416  -0.03980
  42        6D-2        0.02043  -0.04720  -0.07050   0.12088   0.02259
  43 4   O  1S          0.03613   0.02975  -0.05146  -0.00967   0.00273
  44        2S         -0.14322  -0.10197   0.13074   0.05855  -0.00425
  45        3S         -0.41289  -0.37487   0.50560  -0.03716  -0.08416
  46        4PX         0.13757   0.10886  -0.09048  -0.20170  -0.53956
  47        4PY         0.23343   0.16482  -0.34109  -0.12564   0.31425
  48        4PZ         0.04280   0.11422  -0.27068   0.42673  -0.21787
  49        5PX        -0.27349  -0.25725   0.36112   0.32995   0.75831
  50        5PY        -0.57626  -0.47158   1.01542   0.27730  -0.47916
  51        5PZ        -0.17914  -0.21010   0.59375  -0.48846   0.31535
  52        6D 0       -0.01049  -0.00129   0.02122  -0.00932  -0.01883
  53        6D+1       -0.01274   0.01568  -0.01340  -0.02017  -0.02488
  54        6D-1        0.01079  -0.01403  -0.03364   0.00899  -0.00893
  55        6D+2        0.01408   0.00584   0.04139   0.02208  -0.02769
  56        6D-2       -0.00936  -0.00550  -0.03456  -0.00775  -0.02834
  57 5   H  1S          0.21508  -0.10792  -0.07731   0.19429  -0.17528
  58        2S         -0.34097  -0.21463  -0.18557   0.31488  -0.23680
  59        3PX        -0.00201  -0.00822  -0.05617   0.01283  -0.04207
  60        3PY         0.00031  -0.00336  -0.07772   0.14814   0.05945
  61        3PZ         0.09141   0.05233   0.00908   0.01854   0.06340
  62 6   H  1S         -0.17556   0.03287  -0.07363  -0.20175   0.17012
  63        2S         -0.76435  -0.34558  -0.30704  -0.54032   0.27724
  64        3PX        -0.09086  -0.03100  -0.06981   0.02375  -0.00418
  65        3PY        -0.03110   0.02667  -0.07667   0.04846  -0.01692
  66        3PZ         0.04970   0.07922   0.02436   0.07022  -0.08809
  67 7   H  1S          0.15087  -0.06296  -0.07352   0.13381   0.17960
  68        2S         -0.73775  -0.24243  -0.22760   0.08878   0.34521
  69        3PX         0.06702  -0.00430   0.03764  -0.06628  -0.05066
  70        3PY         0.10386   0.01751   0.00221  -0.04070  -0.01974
  71        3PZ        -0.07141  -0.07906  -0.04152  -0.05730   0.04624
  72 8   H  1S         -0.37849   0.27618  -0.14542   0.16835  -0.05963
  73        2S          0.30202  -1.01635  -0.43133   0.14512  -0.10567
  74        3PX        -0.03671   0.04977   0.01812  -0.03078   0.04346
  75        3PY         0.12354  -0.17498  -0.02178  -0.00118   0.03528
  76        3PZ        -0.00220   0.04609   0.04950   0.14996   0.03844
  77 9   H  1S         -0.38007   0.34385  -0.12261  -0.18940  -0.23660
  78        2S         -0.05471  -0.82839   0.18102  -0.07487  -0.49015
  79        3PX        -0.01509   0.04533   0.01210   0.07092  -0.01351
  80        3PY        -0.08191   0.12105  -0.06684   0.00893   0.01798
  81        3PZ        -0.02458   0.11014  -0.00083  -0.12957   0.05019
  82 10  H  1S         -0.28361   0.30722  -0.04708   0.05306  -0.04014
  83        2S          0.84502  -0.59764  -0.10384  -0.08504  -0.16742
  84        3PX         0.01547  -0.06566  -0.03173  -0.02792  -0.04236
  85        3PY        -0.03833   0.02001  -0.00520   0.16849   0.04168
  86        3PZ         0.13972  -0.11867  -0.01201   0.01175  -0.00878
                          46        47        48        49        50
                           V         V         V         V         V
     Eigenvalues --     1.03632   1.08651   1.12916   1.23443   1.26265
   1 1   C  1S          0.00111   0.00089  -0.01156   0.06124  -0.02739
   2        2S          0.04541   0.02767  -0.28122   0.77481  -0.48654
   3        3S          0.13094  -0.37726  -0.42490  -4.74121   1.74797
   4        4PX        -0.02238  -0.06041  -0.00037   0.04768   0.08687
   5        4PY        -0.04332   0.01630   0.01045   0.01664  -0.09097
   6        4PZ         0.04003   0.14398   0.07104  -0.07082  -0.09276
   7        5PX         0.23510   1.19449  -1.29602   1.75538  -0.37984
   8        5PY         0.36712  -0.16897  -0.20751  -0.39019   0.06195
   9        5PZ        -0.07236  -0.83343   0.56412   2.26096   1.35584
  10        6D 0        0.17446   0.18817   0.22105   0.12399  -0.14806
  11        6D+1        0.00787   0.04820   0.17693  -0.15881   0.13345
  12        6D-1        0.22539  -0.05466   0.02670  -0.20205  -0.15354
  13        6D+2       -0.00521   0.02050   0.24254   0.30699   0.03418
  14        6D-2       -0.21214   0.04540   0.01474  -0.00424   0.05737
  15 2   C  1S          0.00463  -0.01901  -0.02436  -0.08887   0.01955
  16        2S          0.00186  -0.17465  -0.24935  -1.16744   0.30822
  17        3S         -0.04316   1.01391  -0.00317   5.75050  -1.09855
  18        4PX        -0.09766   0.10098  -0.06539   0.02890   0.05414
  19        4PY        -0.04680   0.03305   0.11250  -0.00943   0.00154
  20        4PZ         0.10713  -0.03745   0.02723  -0.02803  -0.06494
  21        5PX         0.43331  -0.38794  -0.01816   1.49291   0.08975
  22        5PY         0.06959  -0.28079   0.41629  -1.40577   0.18934
  23        5PZ        -0.74214   0.93660  -0.43904   0.00560  -0.43339
  24        6D 0        0.09329   0.33135   0.02080  -0.25066  -0.04938
  25        6D+1       -0.01660   0.10385  -0.26062   0.05589  -0.02313
  26        6D-1        0.27691   0.14474  -0.19196  -0.03736  -0.22602
  27        6D+2        0.04092  -0.09970   0.06719  -0.17981   0.04901
  28        6D-2       -0.14808  -0.22914  -0.25174  -0.12491  -0.11734
  29 3   C  1S          0.00971  -0.00527  -0.08235   0.01465   0.00125
  30        2S          0.35808  -0.13894  -1.30120   0.18239   0.00128
  31        3S         -0.98145  -0.49049   4.12334   0.19036   0.14926
  32        4PX        -0.02915   0.15109   0.02757  -0.08429   0.03687
  33        4PY         0.19606  -0.13533   0.05072  -0.00023   0.00655
  34        4PZ         0.09996   0.06391  -0.08790   0.03181   0.03697
  35        5PX         0.04640   0.13550  -0.36515  -0.68381  -0.37501
  36        5PY        -0.65355   0.59801  -0.11680  -0.07112  -0.23415
  37        5PZ        -0.26138  -0.35653   0.30030  -0.63815  -0.79671
  38        6D 0       -0.07425   0.04901   0.09342  -0.02145  -0.13757
  39        6D+1        0.02559   0.11411  -0.10674   0.00544   0.31694
  40        6D-1       -0.19020   0.18417  -0.03304  -0.06868  -0.16118
  41        6D+2       -0.03318   0.11802  -0.05979   0.21679   0.20464
  42        6D-2        0.11771  -0.17141   0.05388   0.00804   0.00672
  43 4   O  1S         -0.00260   0.00200   0.00491   0.00057  -0.00773
  44        2S          0.01696  -0.04158  -0.10759   0.04346   0.13618
  45        3S          0.06479   0.02463  -0.00251  -0.04812  -0.01021
  46        4PX         0.28462  -0.00507   0.06379  -0.34107   0.21493
  47        4PY         0.14725  -0.03606  -0.24745   0.09888  -0.04643
  48        4PZ        -0.46460  -0.16380  -0.05997  -0.20088   0.07283
  49        5PX        -0.50842  -0.01250  -0.24113   1.37151  -0.40480
  50        5PY        -0.28863  -0.00051   0.31967  -0.69033   0.15591
[...]
     7  H    0.002648   0.006591   0.000113  -0.003593  -0.000091  -0.003250
     8  H    0.001718  -0.000022  -0.001223   0.000063  -0.000144  -0.000001
     9  H   -0.000479  -0.000068  -0.000699   0.000126   0.000603   0.000037
    10  H   -0.000859  -0.000405  -0.001253   0.001715   0.000175   0.000065
               7          8          9         10
     1  C    0.002648   0.001718  -0.000479  -0.000859
     2  C    0.006591  -0.000022  -0.000068  -0.000405
     3  C    0.000113  -0.001223  -0.000699  -0.001253
     4  O   -0.003593   0.000063   0.000126   0.001715
     5  H   -0.000091  -0.000144   0.000603   0.000175
     6  H   -0.003250  -0.000001   0.000037   0.000065
     7  H    0.028213  -0.000007  -0.000133  -0.000451
     8  H   -0.000007  -0.003278  -0.000020  -0.000106
     9  H   -0.000133  -0.000020   0.002689   0.001069
    10  H   -0.000451  -0.000106   0.001069  -0.001610
 Mulliken charges and spin densities:
               1          2
     1  C   -0.059661  -0.077185
     2  C    0.153707  -0.089667
     3  C    0.011948   0.036850
     4  O    0.055751   1.032877
     5  H    0.160252   0.035597
     6  H    0.145924   0.033040
     7  H    0.165459   0.030040
     8  H    0.136933  -0.003020
     9  H    0.147978   0.003128
    10  H    0.081708  -0.001660
 Sum of Mulliken charges =   1.00000   1.00000
 Mulliken charges and spin densities with hydrogens summed into heavy atoms:
               1          2
     1  C    0.100591  -0.041588
     2  C    0.465090  -0.026587
     3  C    0.378568   0.035298
     4  O    0.055751   1.032877
 Electronic spatial extent (au):  <R**2>=            252.0515
 Charge=              1.0000 electrons
 Dipole moment (field-independent basis, Debye):
    X=             -0.0470    Y=              1.2539    Z=              0.7927  Tot=              1.4842
 Quadrupole moment (field-independent basis, Debye-Ang):
   XX=            -14.4795   YY=            -20.6222   ZZ=            -19.2313
   XY=             -1.7616   XZ=             -0.2632   YZ=             -1.0248
 Traceless Quadrupole moment (field-independent basis, Debye-Ang):
   XX=              3.6315   YY=             -2.5112   ZZ=             -1.1203
   XY=             -1.7616   XZ=             -0.2632   YZ=             -1.0248
 Octapole moment (field-independent basis, Debye-Ang**2):
  XXX=              1.7176  YYY=             -0.1988  ZZZ=              1.0732  XYY=             -1.3874
  XXY=              2.8554  XXZ=              1.5436  XZZ=             -1.2665  YZZ=              0.1692
  YYZ=             -0.4361  XYZ=              0.6287
 Hexadecapole moment (field-independent basis, Debye-Ang**3):
 XXXX=           -164.5933 YYYY=            -59.8922 ZZZZ=            -39.1020 XXXY=             -1.4391
 XXXZ=             -2.7785 YYYX=             -1.3665 YYYZ=             -1.0720 ZZZX=              0.8335
 ZZZY=             -2.2278 XXYY=            -35.1061 XXZZ=            -38.0365 YYZZ=            -16.7208
 XXYZ=              1.9076 YYXZ=              1.1064 ZZXY=             -0.1688
 N-N= 1.247885347085D+02 E-N=-6.901155665370D+02  KE= 1.916270086320D+02
 Orbital energies and kinetic energies (alpha):
                                 1                 2
   1         O               -21.021210         29.180674
   2         O               -11.568583         16.027513
   3         O               -11.561469         16.029256
   4         O               -11.423900         16.024940
   5         O                -1.840765          2.697638
   6         O                -1.284073          1.933769
   7         O                -1.204141          1.600273
   8         O                -1.111428          1.726890
   9         O                -1.065167          2.017302
  10         O                -0.967218          1.777082
  11         O                -0.909068          1.834143
  12         O                -0.847295          1.474148
  13         O                -0.798340          1.320536
  14         O                -0.763390          1.334834
  15         O                -0.732983          1.082893
  16         O                -0.701068          1.313477
  17         V                -0.025126          0.742910
  18         V                -0.007426          1.513726
  19         V                 0.012154          0.683017
  20         V                 0.026620          1.590453
  21         V                 0.040306          0.783805
  22         V                 0.080080          0.762687
  23         V                 0.111586          0.763213
  24         V                 0.126262          0.618301
  25         V                 0.180619          1.187923
  26         V                 0.245536          1.217426
  27         V                 0.340408          1.468443
  28         V                 0.375030          1.407606
  29         V                 0.437982          1.937292
  30         V                 0.463583          1.629623
  31         V                 0.487687          1.916550
  32         V                 0.502197          2.301811
  33         V                 0.541495          2.418975
  34         V                 0.578529          1.587593
  35         V                 0.602439          1.905103
  36         V                 0.636473          2.148785
  37         V                 0.653461          2.223116
  38         V                 0.694212          2.116512
  39         V                 0.701832          2.070271
  40         V                 0.733004          1.912148
  41         V                 0.750043          2.191705
  42         V                 0.781101          2.180463
  43         V                 0.831328          2.209997
  44         V                 0.852996          2.182550
  45         V                 0.959661          2.642162
  46         V                 1.036316          2.443816
  47         V                 1.086505          1.939754
  48         V                 1.129157          2.173782
  49         V                 1.234428          2.355114
  50         V                 1.262645          2.169987
  51         V                 1.297035          2.307729
  52         V                 1.416345          2.326501
  53         V                 1.467706          2.564714
  54         V                 1.498648          2.412914
  55         V                 1.509134          2.195629
  56         V                 1.523799          2.520189
  57         V                 1.574578          2.644309
  58         V                 1.652137          2.696847
  59         V                 1.669090          2.738574
  60         V                 1.693416          2.944443
  61         V                 1.706974          2.598041
  62         V                 1.741516          2.575829
  63         V                 1.784874          2.694020
  64         V                 1.803447          2.848522
  65         V                 1.817610          2.855395
  66         V                 1.826141          2.917110
  67         V                 1.920487          3.027793
  68         V                 1.953589          3.080465
  69         V                 2.016517          3.290685
  70         V                 2.126891          2.970942
  71         V                 2.165151          3.377188
  72         V                 2.270557          3.468483
  73         V                 2.297817          3.654881
  74         V                 2.347169          3.535133
  75         V                 2.380345          3.459802
  76         V                 2.573240          4.320743
  77         V                 2.586904          4.186106
  78         V                 2.602411          4.343189
  79         V                 2.667873          4.465503
  80         V                 2.707801          4.269780
  81         V                 2.791726          4.350622
  82         V                 2.800934          4.466895
  83         V                 2.976382          4.537931
  84         V                 3.016591          4.627229
  85         V                 3.182000          5.139034
  86         V                 3.285966          5.120050
 Orbital energies and kinetic energies (beta):
                                 1                 2
   1         O               -20.976024         29.230861
   2         O               -11.570583         16.025667
   3         O               -11.563140         16.027833
   4         O               -11.422669         16.026138
   5         O                -1.719141          2.370835
   6         O                -1.246107          1.832586
   7         O                -1.187265          1.685856
   8         O                -1.079744          1.572508
   9         O                -0.961746          1.389636
  10         O                -0.910899          1.468973
  11         O                -0.867540          1.591599
  12         O                -0.790306          1.318408
  13         O                -0.757708          1.277087
  14         O                -0.728847          1.089075
  15         O                -0.697361          1.344579
  16         V                -0.225158          1.828838
  17         V                -0.021978          0.676972
  18         V                 0.003450          1.572621
  19         V                 0.017247          0.690931
  20         V                 0.037169          1.094723
  21         V                 0.044217          1.341525
  22         V                 0.084915          0.760069
  23         V                 0.112513          0.766983
  24         V                 0.128689          0.638115
  25         V                 0.184711          1.207184
  26         V                 0.247295          1.228710
  27         V                 0.344277          1.466267
  28         V                 0.388453          1.389325
  29         V                 0.440326          2.008510
  30         V                 0.476343          1.719478
  31         V                 0.494770          1.837161
  32         V                 0.509765          2.290655
  33         V                 0.545589          2.421047
  34         V                 0.581342          1.651421
  35         V                 0.607343          1.868954
  36         V                 0.639682          2.135311
  37         V                 0.655121          2.229546
  38         V                 0.702650          2.071340
  39         V                 0.704276          2.134093
  40         V                 0.742135          1.974933
  41         V                 0.758266          2.026831
  42         V                 0.784301          2.145221
  43         V                 0.845400          2.320291
  44         V                 0.900779          2.171922
  45         V                 0.973426          2.648330
  46         V                 1.084490          2.022156
  47         V                 1.124710          2.733409
  48         V                 1.137275          2.545296
  49         V                 1.241051          2.388998
  50         V                 1.268521          2.185540
  51         V                 1.302273          2.325302
  52         V                 1.418527          2.324734
  53         V                 1.478586          2.572080
  54         V                 1.507145          2.227787
  55         V                 1.513320          2.308524
  56         V                 1.534308          2.719144
  57         V                 1.583641          2.653101
  58         V                 1.656569          2.690408
  59         V                 1.683099          2.643644
  60         V                 1.699479          2.962458
  61         V                 1.711728          2.627904
  62         V                 1.745032          2.599793
  63         V                 1.787835          2.711091
  64         V                 1.809533          2.870977
  65         V                 1.823759          2.842683
  66         V                 1.833850          2.909311
  67         V                 1.928816          3.079730
  68         V                 1.957186          3.084935
  69         V                 2.022122          3.266896
  70         V                 2.128704          2.976158
  71         V                 2.173743          3.379308
  72         V                 2.275505          3.419501
  73         V                 2.308018          3.769853
  74         V                 2.350454          3.532587
  75         V                 2.384004          3.440674
  76         V                 2.581913          4.303635
  77         V                 2.588956          4.208704
  78         V                 2.612348          4.375039
  79         V                 2.674640          4.461880
  80         V                 2.723097          4.272086
  81         V                 2.825056          4.340422
  82         V                 2.858270          4.468308
  83         V                 3.034069          4.536983
  84         V                 3.102585          4.644661
  85         V                 3.247531          5.178365
  86         V                 3.307543          5.132193
 Total kinetic energy from orbitals= 1.916270086320D+02
                          Isotropic Fermi Contact Couplings
        Atom                 a.u.       MegaHertz       Gauss      10(-4) cm-1
     1  C(13)             -0.02917     -32.79625     -11.70252     -10.93965
     2  C(13)             -0.02805     -31.52911     -11.25037     -10.51698
     3  C(13)              0.01412      15.87677       5.66523       5.29592
     4  O(17)              0.32315    -195.89366     -69.89973     -65.34309
     5  H(1)               0.01712      76.53514      27.30964      25.52937
     6  H(1)               0.01501      67.10417      23.94444      22.38354
     7  H(1)               0.01400      62.58594      22.33222      20.87642
     8  H(1)              -0.00126      -5.61854      -2.00483      -1.87414
     9  H(1)               0.00095       4.23669       1.51176       1.41321
    10  H(1)              -0.00106      -4.74897      -1.69455      -1.58409
 --------------------------------------------------------
       Center         ----  Spin Dipole Couplings  ----
                      3XX-RR        3YY-RR        3ZZ-RR
 --------------------------------------------------------
     1   Atom        0.034765     -0.045701      0.010936
     2   Atom       -0.006239      0.016129     -0.009889
     3   Atom        0.053697     -0.026983     -0.026714
     4   Atom       -0.389753     -1.685042      2.074794
     5   Atom       -0.001898     -0.008914      0.010812
     6   Atom       -0.003175      0.011301     -0.008126
     7   Atom       -0.010038      0.018560     -0.008522
     8   Atom        0.011260     -0.003749     -0.007511
     9   Atom        0.002955      0.000337     -0.003292
    10   Atom        0.007697     -0.005903     -0.001794
 --------------------------------------------------------
                        XY            XZ            YZ
 --------------------------------------------------------
     1   Atom        0.013158      0.010876     -0.008112
     2   Atom       -0.038673     -0.017908     -0.021578
     3   Atom        0.021673     -0.017380     -0.004625
     4   Atom        0.486429     -2.378629     -0.905061
     5   Atom        0.004255      0.014903      0.006172
     6   Atom       -0.013270     -0.003832      0.008201
     7   Atom       -0.004833      0.002527     -0.009182
     8   Atom       -0.002861      0.001337     -0.000352
     9   Atom        0.005939      0.002088      0.003479
    10   Atom        0.008239     -0.006374     -0.004126
 --------------------------------------------------------


 ---------------------------------------------------------------------------------
              Anisotropic Spin Dipole Couplings in Principal Axis System
 ---------------------------------------------------------------------------------

       Atom             a.u.   MegaHertz   Gauss  10(-4) cm-1        Axes

              Baa    -0.0494    -6.628    -2.365    -2.211 -0.1728  0.9716  0.1618
     1 C(13)  Bbb     0.0093     1.253     0.447     0.418 -0.2920 -0.2074  0.9337
              Bcc     0.0401     5.375     1.918     1.793  0.9407  0.1141  0.3196
 
              Baa    -0.0528    -7.088    -2.529    -2.364  0.6508  0.5339  0.5398
     2 C(13)  Bbb     0.0067     0.902     0.322     0.301 -0.5150 -0.2120  0.8306
              Bcc     0.0461     6.186     2.207     2.064 -0.5579  0.8185 -0.1370
 
              Baa    -0.0325    -4.356    -1.554    -1.453 -0.2217  0.9690  0.1091
     3 C(13)  Bbb    -0.0303    -4.066    -1.451    -1.356  0.2171 -0.0600  0.9743
              Bcc     0.0628     8.422     3.005     2.809  0.9506  0.2397 -0.1970
 
              Baa    -1.9161   138.650    49.474    46.249  0.3974  0.8150  0.4217
     4 O(17)  Bbb    -1.8002   130.261    46.480    43.450  0.7636 -0.5485  0.3406
              Bcc     3.7163  -268.910   -95.954   -89.699 -0.5089 -0.1866  0.8403
 
              Baa    -0.0118    -6.277    -2.240    -2.094  0.8435 -0.1315 -0.5209
     5 H(1)   Bbb    -0.0107    -5.701    -2.034    -1.902 -0.0144  0.9637 -0.2666
              Bcc     0.0224    11.978     4.274     3.995  0.5370  0.2324  0.8109
 
              Baa    -0.0118    -6.297    -2.247    -2.101 -0.5526 -0.5421  0.6331
     6 H(1)   Bbb    -0.0101    -5.379    -1.919    -1.794  0.6798  0.1463  0.7186
              Bcc     0.0219    11.677     4.167     3.895 -0.4822  0.8275  0.2877
 
              Baa    -0.0121    -6.478    -2.311    -2.161 -0.6220  0.1329  0.7717
     7 H(1)   Bbb    -0.0101    -5.405    -1.929    -1.803  0.7657  0.3094  0.5639
              Bcc     0.0223    11.882     4.240     3.964 -0.1639  0.9416 -0.2942
 
              Baa    -0.0076    -4.061    -1.449    -1.355 -0.0640  0.0435  0.9970
     8 H(1)   Bbb    -0.0043    -2.280    -0.813    -0.760  0.1836  0.9825 -0.0310
              Bcc     0.0119     6.341     2.263     2.115  0.9809 -0.1811  0.0709
 
              Baa    -0.0058    -3.096    -1.105    -1.033  0.2900 -0.6685  0.6848
     9 H(1)   Bbb    -0.0031    -1.667    -0.595    -0.556 -0.6267  0.4081  0.6638
              Bcc     0.0089     4.763     1.700     1.589  0.7233  0.6217  0.3006
 
              Baa    -0.0100    -5.320    -1.898    -1.775 -0.3618  0.9148  0.1795
    10 H(1)   Bbb    -0.0050    -2.665    -0.951    -0.889  0.4479  0.0017  0.8941
              Bcc     0.0150     7.985     2.849     2.664  0.8176  0.4039 -0.4103
 

 ---------------------------------------------------------------------------------

 Unable to Open any file for archive entry.
 1\1\GINC-MEDUSA\SP\UHF\CC-pVDZ\C3H6O1(1+,2)\PLESTRAN\01-Oct-2015\0\\# 
 uhf/cc-pVDZ gfinput pop=full nosymm Field=X-100\\S-Propylene Oxide cc-
 pVDZ\\1,2\C,0,0.152133,-0.0358,0.485797\C,0,-1.039475,0.615938,-0.0612
 49\C,0,1.507144,0.097806,-0.14846\O,0,-0.828215,-0.788248,-0.239431\H,
 0,0.153725,-0.249258,1.552136\H,0,-1.863178,0.881921,0.593333\H,0,-0.9
 49807,1.21421,-0.962771\H,0,2.076806,-0.826189,-0.036671\H,0,2.074465,
 0.901788,0.325106\H,0,1.414895,0.315852,-1.212218\\Version=ES64L-GDVRe
 vI.03+\HF=-191.5953329\EFC=0.\S2=0.762071\S2-1=0.\S2A=0.750118\RMSD=8.
 972e-09\Dipole=-0.0185025,0.4933254,0.3118804\Quadrupole=2.6999072,-1.
 8670043,-0.8329029,-1.3097332,-0.1956628,-0.7619138\PG=C01 [X(C3H6O1)]
 \\@
 The archive entry for this job was punched.


 SIGN SEEN IN A RESTAURANT-
 WE RESERVE THE RIGHT TO SERVE REFUSE TO ANYONE.
 Job cpu time:       0 days  0 hours  0 minutes  2.4 seconds.
 Elapsed time:       0 days  0 hours  0 minutes  2.2 seconds.
 File lengths (MBytes):  RWF=      9 Int=      0 D2E=      0 Chk=      2 Scr=      1
 Normal termination of Gaussian DV at Thu Oct  1 15:46:44 2015.
