 Entering Gaussian System, Link 0=gdv
 Input=O2_sto3g.com
 Output=O2_sto3g.log
 Initial command:
 /home/gauss/gdvi02/gdv/l1.exe "/home/GauScr/Gau-26424.inp" -scrdir="/home/GauScr/"
 Entering Link 1 = /home/gauss/gdvi02/gdv/l1.exe PID=     26425.
  
 Copyright (c) 1988,1990,1992,1993,1995,1998,2003,2009,2014,
            Gaussian, Inc.  All Rights Reserved.
  
 This is the private, development version of
 the Gaussian(R) DV system of programs. It is based on
 the Gaussian(R) 09 system (copyright 2009, Gaussian, Inc.),
 the Gaussian(R) 03 system (copyright 2003, Gaussian, Inc.),
 the Gaussian(R) 98 system (copyright 1998, Gaussian, Inc.),
 the Gaussian(R) 94 system (copyright 1995, Gaussian, Inc.),
 the Gaussian 92(TM) system (copyright 1992, Gaussian, Inc.),
 the Gaussian 90(TM) system (copyright 1990, Gaussian, Inc.),
 the Gaussian 88(TM) system (copyright 1988, Gaussian, Inc.),
 the Gaussian 86(TM) system (copyright 1986, Carnegie Mellon
 University), and the Gaussian 82(TM) system (copyright 1983,
 Carnegie Mellon University). Gaussian is a federally registered
 trademark of Gaussian, Inc.
  
 This software contains proprietary and confidential information,
 including trade secrets, belonging to Gaussian, Inc.
  
 This software is provided under written license and may be
 used, copied, transmitted, or stored only in accord with that
 written license.
  
 The following legend is applicable only to US Government
 contracts under FAR:
  
                    RESTRICTED RIGHTS LEGEND
  
 Use, reproduction and disclosure by the US Government is
 subject to restrictions as set forth in subparagraphs (a)
 and (c) of the Commercial Computer Software - Restricted
 Rights clause in FAR 52.227-19.
  
 Gaussian, Inc.
 340 Quinnipiac St., Bldg. 40, Wallingford CT 06492
  
  
 ---------------------------------------------------------------
 Warning -- This program may not be used in any manner that
 competes with the business of Gaussian, Inc. or will provide
 assistance to any competitor of Gaussian, Inc.  The licensee
 of this program is prohibited from giving any competitor of
 Gaussian, Inc. access to this program.  By using this program,
 the user acknowledges that Gaussian, Inc. is engaged in the
 business of creating and licensing software in the field of
 computational chemistry and represents and warrants to the
 licensee that it is not a competitor of Gaussian, Inc. and that
 it will not use this program in any manner prohibited above.
 ---------------------------------------------------------------
  

 Cite this work as:
 Gaussian Development Version, Revision I.02,
 M. J. Frisch, G. W. Trucks, H. B. Schlegel, G. E. Scuseria, 
 M. A. Robb, J. R. Cheeseman, G. Scalmani, V. Barone, B. Mennucci, 
 G. A. Petersson, H. Nakatsuji, M. Caricato, X. Li, H. P. Hratchian, 
 J. Bloino, B. G. Janesko, A. F. Izmaylov, F. Lipparini, G. Zheng, 
 J. L. Sonnenberg, W. Liang, M. Hada, M. Ehara, K. Toyota, R. Fukuda, 
 J. Hasegawa, M. Ishida, T. Nakajima, Y. Honda, O. Kitao, H. Nakai, 
 T. Vreven, K. Throssell, J. A. Montgomery, Jr., J. E. Peralta, 
 F. Ogliaro, M. Bearpark, J. J. Heyd, E. Brothers, K. N. Kudin, 
 V. N. Staroverov, T. Keith, R. Kobayashi, J. Normand, 
 K. Raghavachari, A. Rendell, J. C. Burant, S. S. Iyengar, J. Tomasi, 
 M. Cossi, N. Rega, J. M. Millam, M. Klene, J. E. Knox, J. B. Cross, 
 V. Bakken, C. Adamo, J. Jaramillo, R. Gomperts, R. E. Stratmann, 
 O. Yazyev, A. J. Austin, R. Cammi, C. Pomelli, J. W. Ochterski, 
 R. L. Martin, K. Morokuma, V. G. Zakrzewski, G. A. Voth, 
 P. Salvador, J. J. Dannenberg, S. Dapprich, P. V. Parandekar, 
 N. J. Mayhall, A. D. Daniels, O. Farkas, J. B. Foresman, 
 J. V. Ortiz, J. Cioslowski, and D. J. Fox, 
 Gaussian, Inc., Wallingford CT, 2014.
 
 ******************************************
 Gaussian DV:  ES64L-GDVRevI.02  7-Dec-2014
                 1-Jun-2015 
 ******************************************
 -----------------------------------------------
 #p uhf/sto-3g opt=tight output=RawMatrixElement
 -----------------------------------------------
 1/7=10,18=20,19=15,38=1/1,3;
 2/9=110,12=2,17=6,18=5,40=1/2;
 3/6=3,11=2,25=1,30=1,71=1,116=2,160=2000000/1,2,3;
 4//1;
 5/5=2,38=5/2;
 6/7=2,8=2,9=2,10=2,28=1,125=2000000/1;
 7//1,2,3,16;
 1/7=10,18=20,19=15/3(2);
 2/9=110/2;
 99/6=100000,125=2000000/99;
 2/9=110/2;
 3/6=3,11=2,25=1,30=1,71=1,116=2,160=2000000/1,2,3;
 4/5=5,16=3,69=1/1;
 5/5=2,38=5/2;
 7//1,2,3,16;
 1/7=10,18=20,19=15/3(-5);
 2/9=110/2;
 6/7=2,8=2,9=2,10=2,19=2,28=1,125=2000000/1;
 99/6=100000,9=1,125=2000000/99;
 Leave Link    1 at Mon Jun  1 10:34:01 2015, MaxMem=           0 cpu:               0.0 elap:               0.0
 (Enter /home/gauss/gdvi02/gdv/l101.exe)
 ------
 O2 SCF
 ------
 Symbolic Z-matrix:
 Charge =  0 Multiplicity = 3
 O                     0.        0.        0.60859 
 O                     0.        0.       -0.60859 
 
 ITRead=  0  0
 MicOpt= -1 -1
 NAtoms=      2 NQM=        2 NQMF=       0 NMMI=      0 NMMIF=      0
                NMic=       0 NMicF=      0.
                    Isotopes and Nuclear Properties:
 (Nuclear quadrupole moments (NQMom) in fm**2, nuclear magnetic moments (NMagM)
  in nuclear magnetons)

  Atom         1           2
 IAtWgt=          16          16
 AtmWgt=  15.9949146  15.9949146
 NucSpn=           0           0
 AtZEff=   0.0000000   0.0000000
 NQMom=    0.0000000   0.0000000
 NMagM=    0.0000000   0.0000000
 AtZNuc=   8.0000000   8.0000000
 Leave Link  101 at Mon Jun  1 10:34:01 2015, MaxMem=    33554432 cpu:               0.1 elap:               0.1
 (Enter /home/gauss/gdvi02/gdv/l103.exe)

 GradGradGradGradGradGradGradGradGradGradGradGradGradGradGradGradGradGrad
 Berny optimization.
 Initialization pass.
                           ----------------------------
                           !    Initial Parameters    !
                           ! (Angstroms and Degrees)  !
 --------------------------                            --------------------------
 ! Name  Definition              Value          Derivative Info.                !
 --------------------------------------------------------------------------------
 ! R1    R(1,2)                  1.2172         estimate D2E/DX2                !
 --------------------------------------------------------------------------------
 Trust Radius=3.00D-01 FncErr=1.00D-07 GrdErr=1.00D-07 EigMax=2.50D+02 EigMin=1.00D-04
 Number of steps in this run=     20 maximum allowed number of steps=    100.
 GradGradGradGradGradGradGradGradGradGradGradGradGradGradGradGradGradGrad

 Leave Link  103 at Mon Jun  1 10:34:01 2015, MaxMem=    33554432 cpu:               0.0 elap:               0.0
 (Enter /home/gauss/gdvi02/gdv/l202.exe)
                          Input orientation:                          
 ---------------------------------------------------------------------
 Center     Atomic      Atomic             Coordinates (Angstroms)
 Number     Number       Type             X           Y           Z
 ---------------------------------------------------------------------
      1          8           0        0.000000    0.000000    0.608586
      2          8           0        0.000000    0.000000   -0.608586
 ---------------------------------------------------------------------
 Stoichiometry    O2(3)
 Framework group  D*H[C*(O.O)]
 Deg. of freedom     1
 Full point group                 D*H     NOp   8
 Largest Abelian subgroup         D2H     NOp   8
 Largest concise Abelian subgroup C2      NOp   2
                         Standard orientation:                         
 ---------------------------------------------------------------------
 Center     Atomic      Atomic             Coordinates (Angstroms)
 Number     Number       Type             X           Y           Z
 ---------------------------------------------------------------------
      1          8           0        0.000000    0.000000    0.608586
      2          8           0        0.000000    0.000000   -0.608586
 ---------------------------------------------------------------------
 Rotational constants (GHZ):      0.0000000     42.6541569     42.6541569
 Leave Link  202 at Mon Jun  1 10:34:01 2015, MaxMem=    33554432 cpu:               0.0 elap:               0.0
 (Enter /home/gauss/gdvi02/gdv/l301.exe)
 Standard basis: STO-3G (5D, 7F)
 Ernie: Thresh=  0.10000D-02 Tol=  0.10000D-05 Strict=F.
 There are     3 symmetry adapted cartesian basis functions of AG  symmetry.
 There are     0 symmetry adapted cartesian basis functions of B1G symmetry.
 There are     1 symmetry adapted cartesian basis functions of B2G symmetry.
 There are     1 symmetry adapted cartesian basis functions of B3G symmetry.
 There are     0 symmetry adapted cartesian basis functions of AU  symmetry.
 There are     3 symmetry adapted cartesian basis functions of B1U symmetry.
 There are     1 symmetry adapted cartesian basis functions of B2U symmetry.
 There are     1 symmetry adapted cartesian basis functions of B3U symmetry.
 There are     3 symmetry adapted basis functions of AG  symmetry.
 There are     0 symmetry adapted basis functions of B1G symmetry.
 There are     1 symmetry adapted basis functions of B2G symmetry.
 There are     1 symmetry adapted basis functions of B3G symmetry.
 There are     0 symmetry adapted basis functions of AU  symmetry.
 There are     3 symmetry adapted basis functions of B1U symmetry.
 There are     1 symmetry adapted basis functions of B2U symmetry.
 There are     1 symmetry adapted basis functions of B3U symmetry.
    10 basis functions,    30 primitive gaussians,    10 cartesian basis functions
     9 alpha electrons        7 beta electrons
       nuclear repulsion energy        27.8246143510 Hartrees.
 IExCor=    0 DFT=F Ex=HF Corr=None ExCW=0 ScaHFX=  1.000000
 ScaDFX=  1.000000  1.000000  1.000000  1.000000 ScalE2=  1.000000  1.000000
 IRadAn=      0 IRanWt=     -1 IRanGd=            0 ICorTp=0 IEmpDi=  4
 NAtoms=    2 NActive=    2 NUniq=    1 SFac= 4.00D+00 NAtFMM=   60 NAOKFM=F Big=F
 Integral buffers will be    131072 words long.
 Raffenetti 2 integral format.
 Two-electron integral symmetry is turned on.
 Leave Link  301 at Mon Jun  1 10:34:02 2015, MaxMem=    33554432 cpu:               0.0 elap:               0.1
 (Enter /home/gauss/gdvi02/gdv/l302.exe)
 NPDir=0 NMtPBC=     1 NCelOv=     1 NCel=       1 NClECP=     1 NCelD=      1
         NCelK=      1 NCelE2=     1 NClLst=     1 CellRange=     0.0.
 One-electron integrals computed using PRISM.
 One-electron integral symmetry used in STVInt
 NBasis=    10 RedAO= T EigKep=  3.67D-01  NBF=     3     0     1     1     0     3     1     1
 NBsUse=    10 1.00D-06 EigRej= -1.00D+00 NBFU=     3     0     1     1     0     3     1     1
 Leave Link  302 at Mon Jun  1 10:34:02 2015, MaxMem=    33554432 cpu:               0.1 elap:               0.1
 (Enter /home/gauss/gdvi02/gdv/l303.exe)
 DipDrv:  MaxL=1.
 Leave Link  303 at Mon Jun  1 10:34:02 2015, MaxMem=    33554432 cpu:               0.0 elap:               0.0
 (Enter /home/gauss/gdvi02/gdv/l401.exe)
 ExpMin= 3.80D-01 ExpMax= 1.31D+02 ExpMxC= 1.31D+02 IAcc=1 IRadAn=         1 AccDes= 0.00D+00
 Harris functional with IExCor=  205 and IRadAn=       1 diagonalized for initial guess.
 HarFok:  IExCor=  205 AccDes= 0.00D+00 IRadAn=         1 IDoV= 1 UseB2=F ITyADJ=14
 ICtDFT=  3500011 ScaDFX=  1.000000  1.000000  1.000000  1.000000
 FoFCou: FMM=F IPFlag=           0 FMFlag=      100000 FMFlg1=           0
         NFxFlg=           0 DoJE=T BraDBF=F KetDBF=T FulRan=T
         wScrn=  0.000000 ICntrl=       500 IOpCl=  0 I1Cent=   200000004 NGrid=           0
         NMat0=    1 NMatS0=      1 NMatT0=    0 NMatD0=    1 NMtDS0=    0 NMtDT0=    0
 Petite list used in FoFCou.
 Harris En= -147.510557514835    
 JPrj=0 DoOrth=F DoCkMO=F.
 Initial guess orbital symmetries:
 Alpha Orbitals:
       Occupied  (SGU) (SGG) (SGG) (SGU) (SGG) (PIU) (PIU) (PIG)
                 (PIG)
       Virtual   (SGU)
 Beta  Orbitals:
       Occupied  (SGU) (SGG) (SGG) (SGU) (SGG) (PIU) (PIU)
       Virtual   (PIG) (PIG) (SGU)
 The electronic state of the initial guess is 3-SGG.
 Initial guess <Sx>= 0.0000 <Sy>= 0.0000 <Sz>= 1.0000 <S**2>= 2.0000 S= 1.0000
 Leave Link  401 at Mon Jun  1 10:34:02 2015, MaxMem=    33554432 cpu:               0.1 elap:               0.1
 (Enter /home/gauss/gdvi02/gdv/l502.exe)
 Keep R1 and R2 ints in memory in symmetry-blocked form, NReq=804708.
 FoFCou: FMM=F IPFlag=           0 FMFlag=           0 FMFlg1=           0
         NFxFlg=           0 DoJE=F BraDBF=F KetDBF=F FulRan=T
         wScrn=  0.000000 ICntrl=       600 IOpCl=  0 I1Cent=           0 NGrid=           0
         NMat0=    1 NMatS0=     55 NMatT0=    0 NMatD0=    1 NMtDS0=    0 NMtDT0=    0
 Petite list used in FoFCou.
 UHF open shell SCF:
 Using DIIS extrapolation, IDIIS=  1040.
 NGot=    33554432 LenX=    33551644 LenY=    33550762
 Requested convergence on RMS density matrix=1.00D-08 within 128 cycles.
 Requested convergence on MAX density matrix=1.00D-06.
 Requested convergence on             energy=1.00D-06.
 No special actions if energy rises.

 Cycle   1  Pass 1  IDiag  1:
 E= -147.630961797903    
 DIIS: error= 3.62D-02 at cycle   1 NSaved=   1.
 NSaved= 1 IEnMin= 1 EnMin= -147.630961797903     IErMin= 1 ErrMin= 3.62D-02
 ErrMax= 3.62D-02  0.00D+00 EMaxC= 1.00D-01 BMatC= 1.92D-02 BMatP= 1.92D-02
 IDIUse=3 WtCom= 6.38D-01 WtEn= 3.62D-01
 Coeff-Com:  0.100D+01
 Coeff-En:   0.100D+01
 Coeff:      0.100D+01
 Gap=     1.089 Goal=   None    Shift=    0.000
 Gap=     0.707 Goal=   None    Shift=    0.000
 GapD=    0.707 DampG=2.000 DampE=0.500 DampFc=1.0000 IDamp=-1.
 RMSDP=6.36D-03 MaxDP=2.92D-02              OVMax= 0.00D+00

 Cycle   2  Pass 1  IDiag  1:
 E= -147.633834279283     Delta-E=       -0.002872481381 Rises=F Damp=F
 DIIS: error= 7.99D-03 at cycle   2 NSaved=   2.
 NSaved= 2 IEnMin= 2 EnMin= -147.633834279283     IErMin= 2 ErrMin= 7.99D-03
 ErrMax= 7.99D-03  0.00D+00 EMaxC= 1.00D-01 BMatC= 7.92D-04 BMatP= 1.92D-02
 IDIUse=3 WtCom= 9.20D-01 WtEn= 7.99D-02
 Coeff-Com: -0.152D+00 0.115D+01
 Coeff-En:   0.000D+00 0.100D+01
 Coeff:     -0.139D+00 0.114D+01
 Gap=     1.091 Goal=   None    Shift=    0.000
 Gap=     0.707 Goal=   None    Shift=    0.000
 RMSDP=2.40D-03 MaxDP=1.04D-02 DE=-2.87D-03 OVMax= 0.00D+00

 Cycle   3  Pass 1  IDiag  1:
 E= -147.634143478409     Delta-E=       -0.000309199126 Rises=F Damp=F
 DIIS: error= 1.74D-03 at cycle   3 NSaved=   3.
 NSaved= 3 IEnMin= 3 EnMin= -147.634143478409     IErMin= 3 ErrMin= 1.74D-03
 ErrMax= 1.74D-03  0.00D+00 EMaxC= 1.00D-01 BMatC= 5.86D-05 BMatP= 7.92D-04
 IDIUse=3 WtCom= 9.83D-01 WtEn= 1.74D-02
 Coeff-Com:  0.320D-01-0.474D+00 0.144D+01
 Coeff-En:   0.000D+00 0.000D+00 0.100D+01
 Coeff:      0.314D-01-0.466D+00 0.143D+01
 Gap=     1.090 Goal=   None    Shift=    0.000
 Gap=     0.707 Goal=   None    Shift=    0.000
 RMSDP=9.12D-04 MaxDP=3.42D-03 DE=-3.09D-04 OVMax= 0.00D+00

 Cycle   4  Pass 1  IDiag  1:
 E= -147.634171145457     Delta-E=       -0.000027667048 Rises=F Damp=F
 DIIS: error= 2.28D-04 at cycle   4 NSaved=   4.
 NSaved= 4 IEnMin= 4 EnMin= -147.634171145457     IErMin= 4 ErrMin= 2.28D-04
 ErrMax= 2.28D-04  0.00D+00 EMaxC= 1.00D-01 BMatC= 6.45D-07 BMatP= 5.86D-05
 IDIUse=3 WtCom= 9.98D-01 WtEn= 2.28D-03
 Coeff-Com: -0.808D-02 0.151D+00-0.531D+00 0.139D+01
 Coeff-En:   0.000D+00 0.000D+00 0.000D+00 0.100D+01
 Coeff:     -0.806D-02 0.150D+00-0.530D+00 0.139D+01
 Gap=     1.090 Goal=   None    Shift=    0.000
 Gap=     0.707 Goal=   None    Shift=    0.000
 RMSDP=9.87D-05 MaxDP=4.63D-04 DE=-2.77D-05 OVMax= 0.00D+00

 Cycle   5  Pass 1  IDiag  1:
 E= -147.634171441361     Delta-E=       -0.000000295904 Rises=F Damp=F
 DIIS: error= 2.34D-07 at cycle   5 NSaved=   5.
 NSaved= 5 IEnMin= 5 EnMin= -147.634171441361     IErMin= 5 ErrMin= 2.34D-07
 ErrMax= 2.34D-07  0.00D+00 EMaxC= 1.00D-01 BMatC= 6.79D-13 BMatP= 6.45D-07
 IDIUse=1 WtCom= 1.00D+00 WtEn= 0.00D+00
 Coeff-Com:  0.166D-03-0.300D-02 0.105D-01-0.274D-01 0.102D+01
 Coeff:      0.166D-03-0.300D-02 0.105D-01-0.274D-01 0.102D+01
 Gap=     1.090 Goal=   None    Shift=    0.000
 Gap=     0.707 Goal=   None    Shift=    0.000
 RMSDP=3.71D-08 MaxDP=1.33D-07 DE=-2.96D-07 OVMax= 0.00D+00

 Cycle   6  Pass 1  IDiag  1:
 E= -147.634171441361     Delta-E=        0.000000000000 Rises=F Damp=F
 DIIS: error= 5.48D-09 at cycle   6 NSaved=   6.
 NSaved= 6 IEnMin= 5 EnMin= -147.634171441361     IErMin= 6 ErrMin= 5.48D-09
 ErrMax= 5.48D-09  0.00D+00 EMaxC= 1.00D-01 BMatC= 3.70D-16 BMatP= 6.79D-13
 IDIUse=1 WtCom= 1.00D+00 WtEn= 0.00D+00
 Coeff-Com:  0.129D-06-0.623D-05 0.256D-04-0.791D-04-0.245D-01 0.102D+01
 Coeff:      0.129D-06-0.623D-05 0.256D-04-0.791D-04-0.245D-01 0.102D+01
 Gap=     1.090 Goal=   None    Shift=    0.000
 Gap=     0.707 Goal=   None    Shift=    0.000
 RMSDP=8.66D-10 MaxDP=4.03D-09 DE= 2.84D-14 OVMax= 0.00D+00

 SCF Done:  E(UHF) =  -147.634171441     A.U. after    6 cycles
            NFock=  6  Conv=0.87D-09     -V/T= 2.0113
 <Sx>= 0.0000 <Sy>= 0.0000 <Sz>= 1.0000 <S**2>= 2.0034 S= 1.0011
 <L.S>= 0.000000000000E+00
 KE= 1.459850642931D+02 PE=-4.058374340602D+02 EE= 8.439358397466D+01
 Annihilation of the first spin contaminant:
 S**2 before annihilation     2.0034,   after     2.0000
 Leave Link  502 at Mon Jun  1 10:34:02 2015, MaxMem=    33554432 cpu:               0.1 elap:               0.1
 (Enter /home/gauss/gdvi02/gdv/l601.exe)
 Copying SCF densities to generalized density rwf, IOpCl= 1 IROHF=0.

 **********************************************************************

            Population analysis using the SCF density.

 **********************************************************************

 Orbital symmetries:
 Alpha Orbitals:
       Occupied  (SGU) (SGG) (SGG) (SGU) (PIU) (PIU) (SGG) (PIG)
                 (PIG)
       Virtual   (SGU)
 Beta  Orbitals:
       Occupied  (SGU) (SGG) (SGG) (SGU) (SGG) (PIU) (PIU)
       Virtual   (PIG) (PIG) (SGU)
 The electronic state is 3-SGG.
 Alpha  occ. eigenvalues --  -20.43921 -20.43810  -1.61162  -1.09224  -0.71156
 Alpha  occ. eigenvalues --   -0.71156  -0.60490  -0.41547  -0.41547
 Alpha virt. eigenvalues --    0.67486
  Beta  occ. eigenvalues --  -20.40773 -20.40755  -1.48030  -0.89949  -0.55251
  Beta  occ. eigenvalues --   -0.43875  -0.43875
  Beta virt. eigenvalues --    0.26788   0.26788   0.76406
          Condensed to atoms (all electrons):
               1          2
     1  O    7.750724   0.249276
     2  O    0.249276   7.750724
          Atomic-Atomic Spin Densities.
               1          2
     1  O    1.206370  -0.206370
     2  O   -0.206370   1.206370
 Mulliken charges and spin densities:
               1          2
     1  O    0.000000   1.000000
     2  O    0.000000   1.000000
 Sum of Mulliken charges =   0.00000   2.00000
 Mulliken charges and spin densities with hydrogens summed into heavy atoms:
               1          2
     1  O    0.000000   1.000000
     2  O    0.000000   1.000000
 Electronic spatial extent (au):  <R**2>=             40.9779
 Charge=              0.0000 electrons
 Dipole moment (field-independent basis, Debye):
    X=              0.0000    Y=              0.0000    Z=              0.0000  Tot=              0.0000
 Quadrupole moment (field-independent basis, Debye-Ang):
   XX=             -8.4750   YY=             -8.4750   ZZ=             -9.7028
   XY=              0.0000   XZ=              0.0000   YZ=              0.0000
 Traceless Quadrupole moment (field-independent basis, Debye-Ang):
   XX=              0.4093   YY=              0.4093   ZZ=             -0.8186
   XY=              0.0000   XZ=              0.0000   YZ=              0.0000
 Octapole moment (field-independent basis, Debye-Ang**2):
  XXX=              0.0000  YYY=              0.0000  ZZZ=              0.0000  XYY=              0.0000
  XXY=              0.0000  XXZ=              0.0000  XZZ=              0.0000  YZZ=              0.0000
  YYZ=              0.0000  XYZ=              0.0000
 Hexadecapole moment (field-independent basis, Debye-Ang**3):
 XXXX=             -3.9630 YYYY=             -3.9630 ZZZZ=            -23.6695 XXXY=              0.0000
 XXXZ=              0.0000 YYYX=              0.0000 YYYZ=              0.0000 ZZZX=              0.0000
 ZZZY=              0.0000 XXYY=             -1.3210 XXZZ=             -4.5963 YYZZ=             -4.5963
 XXYZ=              0.0000 YYXZ=              0.0000 ZZXY=              0.0000
 N-N= 2.782461435104D+01 E-N=-4.058374340563D+02  KE= 1.459850642931D+02
 Symmetry AG   KE= 6.743859568090D+01
 Symmetry B1G  KE= 0.000000000000D+00
 Symmetry B2G  KE= 2.901449326968D+00
 Symmetry B3G  KE= 2.901449326968D+00
 Symmetry AU   KE= 0.000000000000D+00
 Symmetry B1U  KE= 6.373331036589D+01
 Symmetry B2U  KE= 4.505129796187D+00
 Symmetry B3U  KE= 4.505129796187D+00
 Symmetry AG   SP= 5.298007327014D-15
 Symmetry B1G  SP= 0.000000000000D+00
 Symmetry B2G  SP= 1.000000000000D+00
 Symmetry B3G  SP= 1.000000000000D+00
 Symmetry AU   SP= 0.000000000000D+00
 Symmetry B1U  SP= 1.040834085586D-16
 Symmetry B2U  SP= 2.524283046739D-16
 Symmetry B3U  SP= 2.524283046739D-16
                          Isotropic Fermi Contact Couplings
        Atom                 a.u.       MegaHertz       Gauss      10(-4) cm-1
     1  O(17)              0.13310     -40.34166     -14.39491     -13.45653
     2  O(17)              0.13310     -40.34166     -14.39491     -13.45653
 --------------------------------------------------------
       Center         ----  Spin Dipole Couplings  ----
                      3XX-RR        3YY-RR        3ZZ-RR
 --------------------------------------------------------
     1   Atom        0.785207      0.785207     -1.570413
     2   Atom        0.785207      0.785207     -1.570413
 --------------------------------------------------------
                        XY            XZ            YZ
 --------------------------------------------------------
     1   Atom        0.000000      0.000000      0.000000
     2   Atom        0.000000      0.000000      0.000000
 --------------------------------------------------------


 ---------------------------------------------------------------------------------
              Anisotropic Spin Dipole Couplings in Principal Axis System
 ---------------------------------------------------------------------------------

       Atom             a.u.   MegaHertz   Gauss  10(-4) cm-1        Axes

              Baa    -1.5704   113.634    40.547    37.904  0.0000  0.0000  1.0000
     1 O(17)  Bbb     0.7852   -56.817   -20.274   -18.952  1.0000  0.0000  0.0000
              Bcc     0.7852   -56.817   -20.274   -18.952  0.0000  1.0000  0.0000
 
              Baa    -1.5704   113.634    40.547    37.904  0.0000  0.0000  1.0000
     2 O(17)  Bbb     0.7852   -56.817   -20.274   -18.952  1.0000  0.0000  0.0000
              Bcc     0.7852   -56.817   -20.274   -18.952  0.0000  1.0000  0.0000
 

 ---------------------------------------------------------------------------------

 No NMR shielding tensors so no spin-rotation constants.
 Leave Link  601 at Mon Jun  1 10:34:02 2015, MaxMem=    33554432 cpu:               0.2 elap:               0.2
 (Enter /home/gauss/gdvi02/gdv/l701.exe)
 Compute integral first derivatives.
 ... and contract with generalized density number  0.
 Leave Link  701 at Mon Jun  1 10:34:02 2015, MaxMem=    33554432 cpu:               0.1 elap:               0.1
 (Enter /home/gauss/gdvi02/gdv/l702.exe)
 L702 exits ... SP integral derivatives will be done elsewhere.
 Leave Link  702 at Mon Jun  1 10:34:02 2015, MaxMem=    33554432 cpu:               0.0 elap:               0.0
 (Enter /home/gauss/gdvi02/gdv/l703.exe)
 Compute integral first derivatives, UseDBF=F ICtDFT=           0.
 Integral derivatives from FoFJK, PRISM(SPDF).
 Calling FoFJK, ICntrl=      2127 FMM=F ISym2X=1 I1Cent= 0 IOpClX= 1 NMat=1 NMatS=1 NMatT=0.
 FoFJK:  IHMeth= 1 ICntrl=    2127 DoSepK=F KAlg= 0 I1Cent=           0 FoldK=F
 IRaf=         0 NMat=       1 IRICut=       1 DoRegI=T DoRafI=F ISym2E= 1 IDoP0=0 IntGTp=1.
 FoFCou: FMM=F IPFlag=           0 FMFlag=      100000 FMFlg1=         800
         NFxFlg=           0 DoJE=F BraDBF=F KetDBF=F FulRan=T
         wScrn=  0.000000 ICntrl=      2127 IOpCl=  1 I1Cent=           0 NGrid=           0
         NMat0=    1 NMatS0=      1 NMatT0=    0 NMatD0=    1 NMtDS0=    0 NMtDT0=    0
 Petite list used in FoFCou.
 Leave Link  703 at Mon Jun  1 10:34:02 2015, MaxMem=    33554432 cpu:               0.1 elap:               0.1
 (Enter /home/gauss/gdvi02/gdv/l716.exe)
 Dipole        =-9.86076132D-31 1.54074396D-33 0.00000000D+00
 ***** Axes restored to original set *****
 -------------------------------------------------------------------
 Center     Atomic                   Forces (Hartrees/Bohr)
 Number     Number              X              Y              Z
 -------------------------------------------------------------------
      1        8           0.000000000    0.000000000    0.000000773
      2        8           0.000000000    0.000000000   -0.000000773
 -------------------------------------------------------------------
 Cartesian Forces:  Max     0.000000773 RMS     0.000000446
 Leave Link  716 at Mon Jun  1 10:34:02 2015, MaxMem=    33554432 cpu:               0.0 elap:               0.0
 (Enter /home/gauss/gdvi02/gdv/l103.exe)

 GradGradGradGradGradGradGradGradGradGradGradGradGradGradGradGradGradGrad
 Berny optimization.
 FormGI is forming the generalized inverse of G from B-inverse, IUseBI=4.
 Internal  Forces:  Max     0.000000773 RMS     0.000000773
 Search for a local minimum.
 Step number   1 out of a maximum of   20
 All quantities printed in internal units (Hartrees-Bohrs-Radians)
 RMS Force = .77289D-06 SwitMx=.10000D-02 MixMth= 2
 Mixed Optimization -- En-DIIS/RFO-DIIS
 Second derivative matrix not updated -- first step.
 The second derivative matrix:
                          R1
           R1           0.96647
 ITU=  0
     Eigenvalues ---    0.96647
 RFO step:  Lambda=-6.18061158D-13 EMin= 9.66473020D-01
 Linear search not attempted -- first point.
 Iteration  1 RMS(Cart)=  0.00000057 RMS(Int)=  0.00000000
 ITry= 1 IFail=0 DXMaxC= 4.00D-07 DCOld= 1.00D+10 DXMaxT= 3.00D-01 DXLimC= 3.00D+00 Rises=F
 ClnCor:  largest displacement from symmetrization is 2.45D-23 for atom     2.
 Variable       Old X    -DE/DX   Delta X   Delta X   Delta X     New X
                                 (Linear)    (Quad)   (Total)
    R1        2.30012   0.00000   0.00000   0.00000   0.00000   2.30012
         Item               Value     Threshold  Converged?
 Maximum Force            0.000001     0.000015     YES
 RMS     Force            0.000001     0.000010     YES
 Maximum Displacement     0.000000     0.000060     YES
 RMS     Displacement     0.000001     0.000040     YES
 Predicted change in Energy=-3.090426D-13
 Optimization completed.
    -- Stationary point found.
                           ----------------------------
                           !   Optimized Parameters   !
                           ! (Angstroms and Degrees)  !
 --------------------------                            --------------------------
 ! Name  Definition              Value          Derivative Info.                !
 --------------------------------------------------------------------------------
 ! R1    R(1,2)                  1.2172         -DE/DX =    0.0                 !
 --------------------------------------------------------------------------------
 Lowest energy point so far.  Saving SCF results.
 Largest change from initial coordinates is atom    0       0.000 Angstoms.
 GradGradGradGradGradGradGradGradGradGradGradGradGradGradGradGradGradGrad

 Leave Link  103 at Mon Jun  1 10:34:02 2015, MaxMem=    33554432 cpu:               0.0 elap:               0.0
 (Enter /home/gauss/gdvi02/gdv/l202.exe)
                          Input orientation:                          
 ---------------------------------------------------------------------
 Center     Atomic      Atomic             Coordinates (Angstroms)
 Number     Number       Type             X           Y           Z
 ---------------------------------------------------------------------
      1          8           0        0.000000    0.000000    0.608586
      2          8           0        0.000000    0.000000   -0.608586
 ---------------------------------------------------------------------
 Stoichiometry    O2(3)
 Framework group  D*H[C*(O.O)]
 Deg. of freedom     1
 Full point group                 D*H     NOp   8
 RotChk:  IX=0 Diff= 0.00D+00
 Largest Abelian subgroup         D2H     NOp   8
 Largest concise Abelian subgroup C2      NOp   2
                         Standard orientation:                         
 ---------------------------------------------------------------------
 Center     Atomic      Atomic             Coordinates (Angstroms)
 Number     Number       Type             X           Y           Z
 ---------------------------------------------------------------------
      1          8           0        0.000000    0.000000    0.608586
      2          8           0        0.000000    0.000000   -0.608586
 ---------------------------------------------------------------------
 Rotational constants (GHZ):      0.0000000     42.6541569     42.6541569
 Leave Link  202 at Mon Jun  1 10:34:02 2015, MaxMem=    33554432 cpu:               0.0 elap:               0.0
 (Enter /home/gauss/gdvi02/gdv/l9999.exe)
 Unable to Open any file for archive entry.
 1\1\GINC-MEDUSA\FOpt\UHF\STO-3G\O2(3)\DBWY\01-Jun-2015\0\\#p uhf/sto-3
 g opt=tight output=RawMatrixElement\\O2 SCF\\0,3\O,0.,0.,0.608586\O,0.
 ,0.,-0.608586\\Version=ES64L-GDVRevI.02\State=3-SGG\HF=-147.6341714\S2
 =2.003411\S2-1=0.\S2A=2.\RMSD=8.659e-10\RMSF=4.462e-07\Dipole=0.,0.,0.
 \Quadrupole=0.3042996,0.3042996,-0.6085991,0.,0.,0.\PG=D*H [C*(O1.O1)]
 \\@
 The archive entry for this job was punched.


 "A LITTLE BIT GOES A LONG WAY"
 R.S. MULLIKEN AS QUOTED BY K. RUEDENBERG

 Writing WrtUnf raw file "O2_sto3g.matel"
 Gaussian matrix elements                                         Version   2 NLab=11 Len12L=4 Len4L=4
 WrtUnf:  Initial coordinates match /B/.
 Write SHELL TO ATOM MAP                   from file     0 offset           0 length                   4 to matrix element file.
 Write SHELL TYPES                         from file     0 offset           0 length                   4 to matrix element file.
 Write NUMBER OF PRIMITIVES PER SHELL      from file     0 offset           0 length                   4 to matrix element file.
 Write PRIMITIVE EXPONENTS                 from file     0 offset           0 length                  12 to matrix element file.
 Write CONTRACTION COEFFICIENTS            from file     0 offset           0 length                  12 to matrix element file.
 Write P(S=P) CONTRACTION COEFFICIENTS     from file     0 offset           0 length                  12 to matrix element file.
 Write COORDINATES OF EACH SHELL           from file     0 offset           0 length                  12 to matrix element file.
 Write BONDS PER ATOM                      from file     0 offset           0 length                   2 to matrix element file.
 Write BONDED ATOMS                        from file     0 offset           0 length                   2 to matrix element file.
 Write BOND TYPES                          from file     0 offset           0 length                   2 to matrix element file.
 Write GAUSSIAN SCALARS                    from file   501 offset           0 to matrix element file.
 Write INTEGER ISO                         from file     0 offset           0 length                   2 to matrix element file.
 Write REAL ZEFFECTIVE                     from file     0 offset           0 length                   2 to matrix element file.
 Write REAL ZNUCLEAR                       from file     0 offset           0 length                   2 to matrix element file.
 Write NUCLEAR GRADIENT                    from file 10584 offset           0 length                   6 to matrix element file.
 Array NUCLEAR FORCE CONSTANTS              on  file 10585 does not exist.
 Write ELECTRIC DIPOLE MOMENT              from file     0 offset           0 length                   3 to matrix element file.
 Write OVERLAP                             from file   514 offset           0 length                  55 to matrix element file.
 Write CORE HAMILTONIAN ALPHA              from file   515 offset           0 length                  55 to matrix element file.
 Write CORE HAMILTONIAN BETA               from file   515 offset          55 length                  55 to matrix element file.
 Write KINETIC ENERGY                      from file   516 offset           0 length                  55 to matrix element file.
 Write ORTHOGONAL BASIS                    from file   685 offset           0 length                 100 to matrix element file.
 Write DIPOLE INTEGRALS                    from file   518 offset           0 length                 165 to matrix element file.
 Array DIP VEL INTEGRALS                    on  file   572 does not exist.
 Array R X DEL INTEGRALS                    on  file   572 does not exist.
 Write ALPHA ORBITAL ENERGIES              from file     0 offset           0 length                  10 to matrix element file.
 Write BETA ORBITAL ENERGIES               from file     0 offset           0 length                  10 to matrix element file.
 Write ALPHA MO COEFFICIENTS               from file 10524 offset           0 length                 100 to matrix element file.
 Write BETA MO COEFFICIENTS                from file 10526 offset           0 length                 100 to matrix element file.
 Write ALPHA DENSITY MATRIX                from file 10528 offset           0 length                  55 to matrix element file.
 Write BETA DENSITY MATRIX                 from file 10530 offset           0 length                  55 to matrix element file.
 Write ALPHA SCF DENSITY MATRIX            from file 10528 offset           0 length                  55 to matrix element file.
 Write BETA SCF DENSITY MATRIX             from file 10530 offset           0 length                  55 to matrix element file.
 Write ALPHA FOCK MATRIX                   from file 10536 offset           0 length                  55 to matrix element file.
 Write BETA FOCK MATRIX                    from file 10538 offset           0 length                  55 to matrix element file.
 No 2e integrals to process.
 Job cpu time:       0 days  0 hours  0 minutes  1.3 seconds.
 Elapsed time:       0 days  0 hours  0 minutes  1.0 seconds.
 File lengths (MBytes):  RWF=      5 Int=      0 D2E=      0 Chk=      1 Scr=      1
 Normal termination of Gaussian DV at Mon Jun  1 10:34:03 2015.
