 Entering Gaussian System, Link 0=gdv
 Input=1.com
 Output=1.log
 Initial command:
 /home1/gaussian/gdv/H36/gdv/l1.exe "/state/partition1/Gau-6779.inp" -scrdir="/state/partition1/"
 Entering Link 1 = /home1/gaussian/gdv/H36/gdv/l1.exe PID=      6780.
  
 Copyright (c) 1988,1990,1992,1993,1995,1998,2003,2009,2014,
            Gaussian, Inc.  All Rights Reserved.
  
 This is the private, development version of
 the Gaussian(R) DV system of programs. It is based on
 the Gaussian(R) 09 system (copyright 2009, Gaussian, Inc.),
 the Gaussian(R) 03 system (copyright 2003, Gaussian, Inc.),
 the Gaussian(R) 98 system (copyright 1998, Gaussian, Inc.),
 the Gaussian(R) 94 system (copyright 1995, Gaussian, Inc.),
 the Gaussian 92(TM) system (copyright 1992, Gaussian, Inc.),
 the Gaussian 90(TM) system (copyright 1990, Gaussian, Inc.),
 the Gaussian 88(TM) system (copyright 1988, Gaussian, Inc.),
 the Gaussian 86(TM) system (copyright 1986, Carnegie Mellon
 University), and the Gaussian 82(TM) system (copyright 1983,
 Carnegie Mellon University). Gaussian is a federally registered
 trademark of Gaussian, Inc.
  
 This software contains proprietary and confidential information,
 including trade secrets, belonging to Gaussian, Inc.
  
 This software is provided under written license and may be
 used, copied, transmitted, or stored only in accord with that
 written license.
  
 The following legend is applicable only to US Government
 contracts under FAR:
  
                    RESTRICTED RIGHTS LEGEND
  
 Use, reproduction and disclosure by the US Government is
 subject to restrictions as set forth in subparagraphs (a)
 and (c) of the Commercial Computer Software - Restricted
 Rights clause in FAR 52.227-19.
  
 Gaussian, Inc.
 340 Quinnipiac St., Bldg. 40, Wallingford CT 06492
  
  
 ---------------------------------------------------------------
 Warning -- This program may not be used in any manner that
 competes with the business of Gaussian, Inc. or will provide
 assistance to any competitor of Gaussian, Inc.  The licensee
 of this program is prohibited from giving any competitor of
 Gaussian, Inc. access to this program.  By using this program,
 the user acknowledges that Gaussian, Inc. is engaged in the
 business of creating and licensing software in the field of
 computational chemistry and represents and warrants to the
 licensee that it is not a competitor of Gaussian, Inc. and that
 it will not use this program in any manner prohibited above.
 ---------------------------------------------------------------
  

 Cite this work as:
 Gaussian Development Version, Revision H.36,
 M. J. Frisch, G. W. Trucks, H. B. Schlegel, G. E. Scuseria, 
 M. A. Robb, J. R. Cheeseman, G. Scalmani, V. Barone, B. Mennucci, 
 G. A. Petersson, H. Nakatsuji, M. Caricato, X. Li, H. P. Hratchian, 
 A. F. Izmaylov, J. Bloino, B. G. Janesko, F. Lipparini, G. Zheng, 
 J. L. Sonnenberg, W. Liang, M. Hada, M. Ehara, K. Toyota, R. Fukuda, 
 J. Hasegawa, M. Ishida, T. Nakajima, Y. Honda, O. Kitao, H. Nakai, 
 T. Vreven, J. A. Montgomery, Jr., J. E. Peralta, F. Ogliaro, 
 M. Bearpark, J. J. Heyd, E. Brothers, K. N. Kudin, V. N. Staroverov, 
 T. Keith, R. Kobayashi, J. Normand, K. Raghavachari, A. Rendell, 
 J. C. Burant, S. S. Iyengar, J. Tomasi, M. Cossi, N. Rega, 
 J. M. Millam, M. Klene, J. E. Knox, J. B. Cross, V. Bakken, 
 C. Adamo, J. Jaramillo, R. Gomperts, R. E. Stratmann, O. Yazyev, 
 A. J. Austin, R. Cammi, C. Pomelli, J. W. Ochterski, R. L. Martin, 
 K. Morokuma, V. G. Zakrzewski, G. A. Voth, P. Salvador, 
 J. J. Dannenberg, S. Dapprich, P. V. Parandekar, N. J. Mayhall, 
 A. D. Daniels, O. Farkas, J. B. Foresman, J. V. Ortiz, 
 J. Cioslowski, and D. J. Fox, Gaussian, Inc., Wallingford CT, 2010.
 
 ******************************************
 Gaussian DV:  ES64L-GDVRevH.36  7-Apr-2014
                15-Dec-2014 
 ******************************************
 %mem=8GB
 %chk=1.chk
 ----------------------------------------------------------------------
 #p hf/sto-3g nosymm iop1=timestamp guess=read scf=(incore,novaracc) in
 tegral=acc2e=10
 ----------------------------------------------------------------------
 1/38=1,172=1/1;
 2/12=2,15=1,17=6,18=5,40=1/2;
 3/6=3,11=9,16=1,25=1,27=10,30=1,116=-2/1,2,3;
 4/5=1/1;
 5/5=3,38=6,87=10/2;
 6/7=2,8=2,9=2,10=2,28=1/1;
 99/5=1,9=1/99;
 Leave Link    1 at Mon Dec 15 22:08:45 2014, MaxMem=  1073741824 cpu:               0.1 elap:               0.1
 (Enter /home1/gaussian/gdv/H36/gdv/l101.exe)
 Top of link  101.    Mon Dec 15 22:08:45 2014        0.00 cpu,        0.00 elapsed
 -
 d
 -
 Symbolic Z-matrix:
 Charge =  0 Multiplicity = 1
 C                    0     0.        0.        0. 
 C                    0     1.5       0.        0. 
 C                    0     3.        0.        0. 
 C                    0     4.5       0.        0. 
 C                    0     6.        0.        0. 
 C                    0     7.5       0.        0. 
 C                    0     9.        0.        0. 
 C                    0     10.5      0.        0. 
 C                    0     12.       0.        0. 
 C                    0     13.5      0.        0. 
 C                    0     0.        1.5       0. 
 C                    0     0.        3.        0. 
 C                    0     0.        4.5       0. 
 C                    0     0.        6.        0. 
 C                    0     0.        7.5       0. 
 C                    0     0.        9.        0. 
 C                    0     0.        10.5      0. 
 C                    0     0.        12.       0. 
 C                    0     0.        13.5      0. 
 C                    0     1.5       1.5       0. 
 C                    0     1.5       3.        0. 
 C                    0     1.5       4.5       0. 
 C                    0     1.5       6.        0. 
 C                    0     1.5       7.5       0. 
 C                    0     1.5       9.        0. 
 C                    0     1.5       10.5      0. 
 C                    0     1.5       12.       0. 
 C                    0     1.5       13.5      0. 
 C                    0     3.        1.5       0. 
 C                    0     3.        3.        0. 
 C                    0     3.        4.5       0. 
 C                    0     3.        6.        0. 
 C                    0     3.        7.5       0. 
 C                    0     3.        9.        0. 
 C                    0     3.        10.5      0. 
 C                    0     3.        12.       0. 
 C                    0     3.        13.5      0. 
 C                    0     4.5       1.5       0. 
 C                    0     4.5       3.        0. 
 C                    0     4.5       4.5       0. 
 C                    0     4.5       6.        0. 
 C                    0     4.5       7.5       0. 
 C                    0     4.5       9.        0. 
 C                    0     4.5       10.5      0. 
 C                    0     4.5       12.       0. 
 C                    0     4.5       13.5      0. 
 C                    0     6.        1.5       0. 
 C                    0     6.        3.        0. 
 C                    0     6.        4.5       0. 
 C                    0     6.        6.        0. 
 
 Top GenCBx           Mon Dec 15 22:08:45 2014        0.17 cpu,        0.16 elapsed
 Bot GenCBx           Mon Dec 15 22:08:45 2014        0.00 cpu,        0.00 elapsed
 ITRead=  0  0  0  0  0  0  0  0  0  0  0  0  0  0  0  0  0  0  0  0
 ITRead=  0  0  0  0  0  0  0  0  0  0  0  0  0  0  0  0  0  0  0  0
 ITRead=  0  0  0  0  0  0  0  0  0  0
 MicOpt= -1 -1 -1 -1 -1 -1 -1 -1 -1 -1 -1 -1 -1 -1 -1 -1 -1 -1 -1 -1
 MicOpt= -1 -1 -1 -1 -1 -1 -1 -1 -1 -1 -1 -1 -1 -1 -1 -1 -1 -1 -1 -1
 MicOpt= -1 -1 -1 -1 -1 -1 -1 -1 -1 -1
 Aft Large/GenITR2    Mon Dec 15 22:08:45 2014        0.00 cpu,        0.00 elapsed
 NAtoms=     50 NQM=       50 NQMF=       0 NMMI=      0 NMMIF=      0
                NMic=       0 NMicF=      0.
                    Isotopes and Nuclear Properties:
 (Nuclear quadrupole moments (NQMom) in fm**2, nuclear magnetic moments (NMagM)
  in nuclear magnetons)

  Atom         1           2           3           4           5           6           7           8           9          10
 IAtWgt=          12          12          12          12          12          12          12          12          12          12
 AtmWgt=  12.0000000  12.0000000  12.0000000  12.0000000  12.0000000  12.0000000  12.0000000  12.0000000  12.0000000  12.0000000
 NucSpn=           0           0           0           0           0           0           0           0           0           0
 AtZEff=   0.0000000   0.0000000   0.0000000   0.0000000   0.0000000   0.0000000   0.0000000   0.0000000   0.0000000   0.0000000
 NQMom=    0.0000000   0.0000000   0.0000000   0.0000000   0.0000000   0.0000000   0.0000000   0.0000000   0.0000000   0.0000000
 NMagM=    0.0000000   0.0000000   0.0000000   0.0000000   0.0000000   0.0000000   0.0000000   0.0000000   0.0000000   0.0000000
 AtZNuc=   6.0000000   6.0000000   6.0000000   6.0000000   6.0000000   6.0000000   6.0000000   6.0000000   6.0000000   6.0000000

  Atom        11          12          13          14          15          16          17          18          19          20
 IAtWgt=          12          12          12          12          12          12          12          12          12          12
 AtmWgt=  12.0000000  12.0000000  12.0000000  12.0000000  12.0000000  12.0000000  12.0000000  12.0000000  12.0000000  12.0000000
 NucSpn=           0           0           0           0           0           0           0           0           0           0
 AtZEff=   0.0000000   0.0000000   0.0000000   0.0000000   0.0000000   0.0000000   0.0000000   0.0000000   0.0000000   0.0000000
 NQMom=    0.0000000   0.0000000   0.0000000   0.0000000   0.0000000   0.0000000   0.0000000   0.0000000   0.0000000   0.0000000
 NMagM=    0.0000000   0.0000000   0.0000000   0.0000000   0.0000000   0.0000000   0.0000000   0.0000000   0.0000000   0.0000000
 AtZNuc=   6.0000000   6.0000000   6.0000000   6.0000000   6.0000000   6.0000000   6.0000000   6.0000000   6.0000000   6.0000000

  Atom        21          22          23          24          25          26          27          28          29          30
 IAtWgt=          12          12          12          12          12          12          12          12          12          12
 AtmWgt=  12.0000000  12.0000000  12.0000000  12.0000000  12.0000000  12.0000000  12.0000000  12.0000000  12.0000000  12.0000000
 NucSpn=           0           0           0           0           0           0           0           0           0           0
 AtZEff=   0.0000000   0.0000000   0.0000000   0.0000000   0.0000000   0.0000000   0.0000000   0.0000000   0.0000000   0.0000000
 NQMom=    0.0000000   0.0000000   0.0000000   0.0000000   0.0000000   0.0000000   0.0000000   0.0000000   0.0000000   0.0000000
 NMagM=    0.0000000   0.0000000   0.0000000   0.0000000   0.0000000   0.0000000   0.0000000   0.0000000   0.0000000   0.0000000
 AtZNuc=   6.0000000   6.0000000   6.0000000   6.0000000   6.0000000   6.0000000   6.0000000   6.0000000   6.0000000   6.0000000

  Atom        31          32          33          34          35          36          37          38          39          40
 IAtWgt=          12          12          12          12          12          12          12          12          12          12
 AtmWgt=  12.0000000  12.0000000  12.0000000  12.0000000  12.0000000  12.0000000  12.0000000  12.0000000  12.0000000  12.0000000
 NucSpn=           0           0           0           0           0           0           0           0           0           0
 AtZEff=   0.0000000   0.0000000   0.0000000   0.0000000   0.0000000   0.0000000   0.0000000   0.0000000   0.0000000   0.0000000
 NQMom=    0.0000000   0.0000000   0.0000000   0.0000000   0.0000000   0.0000000   0.0000000   0.0000000   0.0000000   0.0000000
 NMagM=    0.0000000   0.0000000   0.0000000   0.0000000   0.0000000   0.0000000   0.0000000   0.0000000   0.0000000   0.0000000
 AtZNuc=   6.0000000   6.0000000   6.0000000   6.0000000   6.0000000   6.0000000   6.0000000   6.0000000   6.0000000   6.0000000

  Atom        41          42          43          44          45          46          47          48          49          50
 IAtWgt=          12          12          12          12          12          12          12          12          12          12
 AtmWgt=  12.0000000  12.0000000  12.0000000  12.0000000  12.0000000  12.0000000  12.0000000  12.0000000  12.0000000  12.0000000
 NucSpn=           0           0           0           0           0           0           0           0           0           0
 AtZEff=   0.0000000   0.0000000   0.0000000   0.0000000   0.0000000   0.0000000   0.0000000   0.0000000   0.0000000   0.0000000
 NQMom=    0.0000000   0.0000000   0.0000000   0.0000000   0.0000000   0.0000000   0.0000000   0.0000000   0.0000000   0.0000000
 NMagM=    0.0000000   0.0000000   0.0000000   0.0000000   0.0000000   0.0000000   0.0000000   0.0000000   0.0000000   0.0000000
 AtZNuc=   6.0000000   6.0000000   6.0000000   6.0000000   6.0000000   6.0000000   6.0000000   6.0000000   6.0000000   6.0000000
 Leave Link  101 at Mon Dec 15 22:08:45 2014, MaxMem=  1073741824 cpu:               0.2 elap:               0.2
 (Enter /home1/gaussian/gdv/H36/gdv/l202.exe)
 Top of link  202.    Mon Dec 15 22:08:45 2014        0.00 cpu,        0.00 elapsed
                          Input orientation:                          
 ---------------------------------------------------------------------
 Center     Atomic      Atomic             Coordinates (Angstroms)
 Number     Number       Type             X           Y           Z
 ---------------------------------------------------------------------
      1          6           0        0.000000    0.000000    0.000000
      2          6           0        1.500000    0.000000    0.000000
      3          6           0        3.000000    0.000000    0.000000
      4          6           0        4.500000    0.000000    0.000000
      5          6           0        6.000000    0.000000    0.000000
      6          6           0        7.500000    0.000000    0.000000
      7          6           0        9.000000    0.000000    0.000000
      8          6           0       10.500000    0.000000    0.000000
      9          6           0       12.000000    0.000000    0.000000
     10          6           0       13.500000    0.000000    0.000000
     11          6           0        0.000000    1.500000    0.000000
     12          6           0        0.000000    3.000000    0.000000
     13          6           0        0.000000    4.500000    0.000000
     14          6           0        0.000000    6.000000    0.000000
     15          6           0        0.000000    7.500000    0.000000
     16          6           0        0.000000    9.000000    0.000000
     17          6           0        0.000000   10.500000    0.000000
     18          6           0        0.000000   12.000000    0.000000
     19          6           0        0.000000   13.500000    0.000000
     20          6           0        1.500000    1.500000    0.000000
     21          6           0        1.500000    3.000000    0.000000
     22          6           0        1.500000    4.500000    0.000000
     23          6           0        1.500000    6.000000    0.000000
     24          6           0        1.500000    7.500000    0.000000
     25          6           0        1.500000    9.000000    0.000000
     26          6           0        1.500000   10.500000    0.000000
     27          6           0        1.500000   12.000000    0.000000
     28          6           0        1.500000   13.500000    0.000000
     29          6           0        3.000000    1.500000    0.000000
     30          6           0        3.000000    3.000000    0.000000
     31          6           0        3.000000    4.500000    0.000000
     32          6           0        3.000000    6.000000    0.000000
     33          6           0        3.000000    7.500000    0.000000
     34          6           0        3.000000    9.000000    0.000000
     35          6           0        3.000000   10.500000    0.000000
     36          6           0        3.000000   12.000000    0.000000
     37          6           0        3.000000   13.500000    0.000000
     38          6           0        4.500000    1.500000    0.000000
     39          6           0        4.500000    3.000000    0.000000
     40          6           0        4.500000    4.500000    0.000000
     41          6           0        4.500000    6.000000    0.000000
     42          6           0        4.500000    7.500000    0.000000
     43          6           0        4.500000    9.000000    0.000000
     44          6           0        4.500000   10.500000    0.000000
     45          6           0        4.500000   12.000000    0.000000
     46          6           0        4.500000   13.500000    0.000000
     47          6           0        6.000000    1.500000    0.000000
     48          6           0        6.000000    3.000000    0.000000
     49          6           0        6.000000    4.500000    0.000000
     50          6           0        6.000000    6.000000    0.000000
 ---------------------------------------------------------------------
                    Distance matrix (angstroms):
                    1          2          3          4          5
     1  C    0.000000
     2  C    1.500000   0.000000
     3  C    3.000000   1.500000   0.000000
     4  C    4.500000   3.000000   1.500000   0.000000
     5  C    6.000000   4.500000   3.000000   1.500000   0.000000
     6  C    7.500000   6.000000   4.500000   3.000000   1.500000
     7  C    9.000000   7.500000   6.000000   4.500000   3.000000
     8  C   10.500000   9.000000   7.500000   6.000000   4.500000
     9  C   12.000000  10.500000   9.000000   7.500000   6.000000
    10  C   13.500000  12.000000  10.500000   9.000000   7.500000
    11  C    1.500000   2.121320   3.354102   4.743416   6.184658
    12  C    3.000000   3.354102   4.242641   5.408327   6.708204
    13  C    4.500000   4.743416   5.408327   6.363961   7.500000
    14  C    6.000000   6.184658   6.708204   7.500000   8.485281
    15  C    7.500000   7.648529   8.077747   8.746428   9.604686
    16  C    9.000000   9.124144   9.486833  10.062306  10.816654
    17  C   10.500000  10.606602  10.920165  11.423660  12.093387
    18  C   12.000000  12.093387  12.369317  12.816006  13.416408
    19  C   13.500000  13.583078  13.829317  14.230249  14.773287
    20  C    2.121320   1.500000   2.121320   3.354102   4.743416
    21  C    3.354102   3.000000   3.354102   4.242641   5.408327
    22  C    4.743416   4.500000   4.743416   5.408327   6.363961
    23  C    6.184658   6.000000   6.184658   6.708204   7.500000
    24  C    7.648529   7.500000   7.648529   8.077747   8.746428
    25  C    9.124144   9.000000   9.124144   9.486833  10.062306
    26  C   10.606602  10.500000  10.606602  10.920165  11.423660
    27  C   12.093387  12.000000  12.093387  12.369317  12.816006
    28  C   13.583078  13.500000  13.583078  13.829317  14.230249
    29  C    3.354102   2.121320   1.500000   2.121320   3.354102
    30  C    4.242641   3.354102   3.000000   3.354102   4.242641
    31  C    5.408327   4.743416   4.500000   4.743416   5.408327
    32  C    6.708204   6.184658   6.000000   6.184658   6.708204
    33  C    8.077747   7.648529   7.500000   7.648529   8.077747
    34  C    9.486833   9.124144   9.000000   9.124144   9.486833
    35  C   10.920165  10.606602  10.500000  10.606602  10.920165
    36  C   12.369317  12.093387  12.000000  12.093387  12.369317
    37  C   13.829317  13.583078  13.500000  13.583078  13.829317
    38  C    4.743416   3.354102   2.121320   1.500000   2.121320
    39  C    5.408327   4.242641   3.354102   3.000000   3.354102
    40  C    6.363961   5.408327   4.743416   4.500000   4.743416
    41  C    7.500000   6.708204   6.184658   6.000000   6.184658
    42  C    8.746428   8.077747   7.648529   7.500000   7.648529
    43  C   10.062306   9.486833   9.124144   9.000000   9.124144
    44  C   11.423660  10.920165  10.606602  10.500000  10.606602
    45  C   12.816006  12.369317  12.093387  12.000000  12.093387
    46  C   14.230249  13.829317  13.583078  13.500000  13.583078
    47  C    6.184658   4.743416   3.354102   2.121320   1.500000
    48  C    6.708204   5.408327   4.242641   3.354102   3.000000
    49  C    7.500000   6.363961   5.408327   4.743416   4.500000
    50  C    8.485281   7.500000   6.708204   6.184658   6.000000
                    6          7          8          9         10
     6  C    0.000000
     7  C    1.500000   0.000000
     8  C    3.000000   1.500000   0.000000
     9  C    4.500000   3.000000   1.500000   0.000000
    10  C    6.000000   4.500000   3.000000   1.500000   0.000000
    11  C    7.648529   9.124144  10.606602  12.093387  13.583078
    12  C    8.077747   9.486833  10.920165  12.369317  13.829317
    13  C    8.746428  10.062306  11.423660  12.816006  14.230249
    14  C    9.604686  10.816654  12.093387  13.416408  14.773287
    15  C   10.606602  11.715375  12.903488  14.150972  15.443445
    16  C   11.715375  12.727922  13.829317  15.000000  16.224981
    17  C   12.903488  13.829317  14.849242  15.945219  17.102631
    18  C   14.150972  15.000000  15.945219  16.970563  18.062392
    19  C   15.443445  16.224981  17.102631  18.062392  19.091883
    20  C    6.184658   7.648529   9.124144  10.606602  12.093387
    21  C    6.708204   8.077747   9.486833  10.920165  12.369317
    22  C    7.500000   8.746428  10.062306  11.423660  12.816006
    23  C    8.485281   9.604686  10.816654  12.093387  13.416408
    24  C    9.604686  10.606602  11.715375  12.903488  14.150972
    25  C   10.816654  11.715375  12.727922  13.829317  15.000000
    26  C   12.093387  12.903488  13.829317  14.849242  15.945219
    27  C   13.416408  14.150972  15.000000  15.945219  16.970563
    28  C   14.773287  15.443445  16.224981  17.102631  18.062392
    29  C    4.743416   6.184658   7.648529   9.124144  10.606602
    30  C    5.408327   6.708204   8.077747   9.486833  10.920165
    31  C    6.363961   7.500000   8.746428  10.062306  11.423660
    32  C    7.500000   8.485281   9.604686  10.816654  12.093387
    33  C    8.746428   9.604686  10.606602  11.715375  12.903488
    34  C   10.062306  10.816654  11.715375  12.727922  13.829317
    35  C   11.423660  12.093387  12.903488  13.829317  14.849242
    36  C   12.816006  13.416408  14.150972  15.000000  15.945219
    37  C   14.230249  14.773287  15.443445  16.224981  17.102631
    38  C    3.354102   4.743416   6.184658   7.648529   9.124144
    39  C    4.242641   5.408327   6.708204   8.077747   9.486833
    40  C    5.408327   6.363961   7.500000   8.746428  10.062306
    41  C    6.708204   7.500000   8.485281   9.604686  10.816654
    42  C    8.077747   8.746428   9.604686  10.606602  11.715375
    43  C    9.486833  10.062306  10.816654  11.715375  12.727922
    44  C   10.920165  11.423660  12.093387  12.903488  13.829317
    45  C   12.369317  12.816006  13.416408  14.150972  15.000000
    46  C   13.829317  14.230249  14.773287  15.443445  16.224981
    47  C    2.121320   3.354102   4.743416   6.184658   7.648529
    48  C    3.354102   4.242641   5.408327   6.708204   8.077747
    49  C    4.743416   5.408327   6.363961   7.500000   8.746428
    50  C    6.184658   6.708204   7.500000   8.485281   9.604686
                   11         12         13         14         15
    11  C    0.000000
    12  C    1.500000   0.000000
    13  C    3.000000   1.500000   0.000000
    14  C    4.500000   3.000000   1.500000   0.000000
    15  C    6.000000   4.500000   3.000000   1.500000   0.000000
    16  C    7.500000   6.000000   4.500000   3.000000   1.500000
    17  C    9.000000   7.500000   6.000000   4.500000   3.000000
    18  C   10.500000   9.000000   7.500000   6.000000   4.500000
    19  C   12.000000  10.500000   9.000000   7.500000   6.000000
    20  C    1.500000   2.121320   3.354102   4.743416   6.184658
    21  C    2.121320   1.500000   2.121320   3.354102   4.743416
    22  C    3.354102   2.121320   1.500000   2.121320   3.354102
    23  C    4.743416   3.354102   2.121320   1.500000   2.121320
    24  C    6.184658   4.743416   3.354102   2.121320   1.500000
    25  C    7.648529   6.184658   4.743416   3.354102   2.121320
    26  C    9.124144   7.648529   6.184658   4.743416   3.354102
    27  C   10.606602   9.124144   7.648529   6.184658   4.743416
    28  C   12.093387  10.606602   9.124144   7.648529   6.184658
    29  C    3.000000   3.354102   4.242641   5.408327   6.708204
    30  C    3.354102   3.000000   3.354102   4.242641   5.408327
    31  C    4.242641   3.354102   3.000000   3.354102   4.242641
    32  C    5.408327   4.242641   3.354102   3.000000   3.354102
    33  C    6.708204   5.408327   4.242641   3.354102   3.000000
    34  C    8.077747   6.708204   5.408327   4.242641   3.354102
    35  C    9.486833   8.077747   6.708204   5.408327   4.242641
    36  C   10.920165   9.486833   8.077747   6.708204   5.408327
    37  C   12.369317  10.920165   9.486833   8.077747   6.708204
    38  C    4.500000   4.743416   5.408327   6.363961   7.500000
    39  C    4.743416   4.500000   4.743416   5.408327   6.363961
    40  C    5.408327   4.743416   4.500000   4.743416   5.408327
    41  C    6.363961   5.408327   4.743416   4.500000   4.743416
    42  C    7.500000   6.363961   5.408327   4.743416   4.500000
    43  C    8.746428   7.500000   6.363961   5.408327   4.743416
    44  C   10.062306   8.746428   7.500000   6.363961   5.408327
    45  C   11.423660  10.062306   8.746428   7.500000   6.363961
    46  C   12.816006  11.423660  10.062306   8.746428   7.500000
    47  C    6.000000   6.184658   6.708204   7.500000   8.485281
    48  C    6.184658   6.000000   6.184658   6.708204   7.500000
    49  C    6.708204   6.184658   6.000000   6.184658   6.708204
    50  C    7.500000   6.708204   6.184658   6.000000   6.184658
                   16         17         18         19         20
    16  C    0.000000
    17  C    1.500000   0.000000
    18  C    3.000000   1.500000   0.000000
    19  C    4.500000   3.000000   1.500000   0.000000
    20  C    7.648529   9.124144  10.606602  12.093387   0.000000
    21  C    6.184658   7.648529   9.124144  10.606602   1.500000
    22  C    4.743416   6.184658   7.648529   9.124144   3.000000
    23  C    3.354102   4.743416   6.184658   7.648529   4.500000
    24  C    2.121320   3.354102   4.743416   6.184658   6.000000
    25  C    1.500000   2.121320   3.354102   4.743416   7.500000
    26  C    2.121320   1.500000   2.121320   3.354102   9.000000
    27  C    3.354102   2.121320   1.500000   2.121320  10.500000
    28  C    4.743416   3.354102   2.121320   1.500000  12.000000
    29  C    8.077747   9.486833  10.920165  12.369317   1.500000
    30  C    6.708204   8.077747   9.486833  10.920165   2.121320
    31  C    5.408327   6.708204   8.077747   9.486833   3.354102
    32  C    4.242641   5.408327   6.708204   8.077747   4.743416
    33  C    3.354102   4.242641   5.408327   6.708204   6.184658
    34  C    3.000000   3.354102   4.242641   5.408327   7.648529
    35  C    3.354102   3.000000   3.354102   4.242641   9.124144
    36  C    4.242641   3.354102   3.000000   3.354102  10.606602
    37  C    5.408327   4.242641   3.354102   3.000000  12.093387
    38  C    8.746428  10.062306  11.423660  12.816006   3.000000
    39  C    7.500000   8.746428  10.062306  11.423660   3.354102
    40  C    6.363961   7.500000   8.746428  10.062306   4.242641
    41  C    5.408327   6.363961   7.500000   8.746428   5.408327
    42  C    4.743416   5.408327   6.363961   7.500000   6.708204
    43  C    4.500000   4.743416   5.408327   6.363961   8.077747
    44  C    4.743416   4.500000   4.743416   5.408327   9.486833
    45  C    5.408327   4.743416   4.500000   4.743416  10.920165
    46  C    6.363961   5.408327   4.743416   4.500000  12.369317
    47  C    9.604686  10.816654  12.093387  13.416408   4.500000
    48  C    8.485281   9.604686  10.816654  12.093387   4.743416
    49  C    7.500000   8.485281   9.604686  10.816654   5.408327
    50  C    6.708204   7.500000   8.485281   9.604686   6.363961
                   21         22         23         24         25
    21  C    0.000000
    22  C    1.500000   0.000000
    23  C    3.000000   1.500000   0.000000
    24  C    4.500000   3.000000   1.500000   0.000000
    25  C    6.000000   4.500000   3.000000   1.500000   0.000000
    26  C    7.500000   6.000000   4.500000   3.000000   1.500000
    27  C    9.000000   7.500000   6.000000   4.500000   3.000000
    28  C   10.500000   9.000000   7.500000   6.000000   4.500000
    29  C    2.121320   3.354102   4.743416   6.184658   7.648529
    30  C    1.500000   2.121320   3.354102   4.743416   6.184658
    31  C    2.121320   1.500000   2.121320   3.354102   4.743416
    32  C    3.354102   2.121320   1.500000   2.121320   3.354102
    33  C    4.743416   3.354102   2.121320   1.500000   2.121320
    34  C    6.184658   4.743416   3.354102   2.121320   1.500000
    35  C    7.648529   6.184658   4.743416   3.354102   2.121320
    36  C    9.124144   7.648529   6.184658   4.743416   3.354102
    37  C   10.606602   9.124144   7.648529   6.184658   4.743416
    38  C    3.354102   4.242641   5.408327   6.708204   8.077747
    39  C    3.000000   3.354102   4.242641   5.408327   6.708204
    40  C    3.354102   3.000000   3.354102   4.242641   5.408327
    41  C    4.242641   3.354102   3.000000   3.354102   4.242641
    42  C    5.408327   4.242641   3.354102   3.000000   3.354102
    43  C    6.708204   5.408327   4.242641   3.354102   3.000000
    44  C    8.077747   6.708204   5.408327   4.242641   3.354102
    45  C    9.486833   8.077747   6.708204   5.408327   4.242641
    46  C   10.920165   9.486833   8.077747   6.708204   5.408327
    47  C    4.743416   5.408327   6.363961   7.500000   8.746428
    48  C    4.500000   4.743416   5.408327   6.363961   7.500000
    49  C    4.743416   4.500000   4.743416   5.408327   6.363961
    50  C    5.408327   4.743416   4.500000   4.743416   5.408327
                   26         27         28         29         30
    26  C    0.000000
    27  C    1.500000   0.000000
    28  C    3.000000   1.500000   0.000000
    29  C    9.124144  10.606602  12.093387   0.000000
    30  C    7.648529   9.124144  10.606602   1.500000   0.000000
    31  C    6.184658   7.648529   9.124144   3.000000   1.500000
    32  C    4.743416   6.184658   7.648529   4.500000   3.000000
    33  C    3.354102   4.743416   6.184658   6.000000   4.500000
    34  C    2.121320   3.354102   4.743416   7.500000   6.000000
    35  C    1.500000   2.121320   3.354102   9.000000   7.500000
    36  C    2.121320   1.500000   2.121320  10.500000   9.000000
    37  C    3.354102   2.121320   1.500000  12.000000  10.500000
    38  C    9.486833  10.920165  12.369317   1.500000   2.121320
    39  C    8.077747   9.486833  10.920165   2.121320   1.500000
    40  C    6.708204   8.077747   9.486833   3.354102   2.121320
    41  C    5.408327   6.708204   8.077747   4.743416   3.354102
    42  C    4.242641   5.408327   6.708204   6.184658   4.743416
    43  C    3.354102   4.242641   5.408327   7.648529   6.184658
    44  C    3.000000   3.354102   4.242641   9.124144   7.648529
    45  C    3.354102   3.000000   3.354102  10.606602   9.124144
    46  C    4.242641   3.354102   3.000000  12.093387  10.606602
    47  C   10.062306  11.423660  12.816006   3.000000   3.354102
    48  C    8.746428  10.062306  11.423660   3.354102   3.000000
    49  C    7.500000   8.746428  10.062306   4.242641   3.354102
    50  C    6.363961   7.500000   8.746428   5.408327   4.242641
                   31         32         33         34         35
    31  C    0.000000
    32  C    1.500000   0.000000
    33  C    3.000000   1.500000   0.000000
    34  C    4.500000   3.000000   1.500000   0.000000
    35  C    6.000000   4.500000   3.000000   1.500000   0.000000
    36  C    7.500000   6.000000   4.500000   3.000000   1.500000
    37  C    9.000000   7.500000   6.000000   4.500000   3.000000
    38  C    3.354102   4.743416   6.184658   7.648529   9.124144
    39  C    2.121320   3.354102   4.743416   6.184658   7.648529
    40  C    1.500000   2.121320   3.354102   4.743416   6.184658
    41  C    2.121320   1.500000   2.121320   3.354102   4.743416
    42  C    3.354102   2.121320   1.500000   2.121320   3.354102
    43  C    4.743416   3.354102   2.121320   1.500000   2.121320
    44  C    6.184658   4.743416   3.354102   2.121320   1.500000
    45  C    7.648529   6.184658   4.743416   3.354102   2.121320
    46  C    9.124144   7.648529   6.184658   4.743416   3.354102
    47  C    4.242641   5.408327   6.708204   8.077747   9.486833
    48  C    3.354102   4.242641   5.408327   6.708204   8.077747
    49  C    3.000000   3.354102   4.242641   5.408327   6.708204
    50  C    3.354102   3.000000   3.354102   4.242641   5.408327
                   36         37         38         39         40
    36  C    0.000000
    37  C    1.500000   0.000000
    38  C   10.606602  12.093387   0.000000
    39  C    9.124144  10.606602   1.500000   0.000000
    40  C    7.648529   9.124144   3.000000   1.500000   0.000000
    41  C    6.184658   7.648529   4.500000   3.000000   1.500000
    42  C    4.743416   6.184658   6.000000   4.500000   3.000000
    43  C    3.354102   4.743416   7.500000   6.000000   4.500000
    44  C    2.121320   3.354102   9.000000   7.500000   6.000000
    45  C    1.500000   2.121320  10.500000   9.000000   7.500000
    46  C    2.121320   1.500000  12.000000  10.500000   9.000000
    47  C   10.920165  12.369317   1.500000   2.121320   3.354102
    48  C    9.486833  10.920165   2.121320   1.500000   2.121320
    49  C    8.077747   9.486833   3.354102   2.121320   1.500000
    50  C    6.708204   8.077747   4.743416   3.354102   2.121320
                   41         42         43         44         45
    41  C    0.000000
    42  C    1.500000   0.000000
    43  C    3.000000   1.500000   0.000000
    44  C    4.500000   3.000000   1.500000   0.000000
    45  C    6.000000   4.500000   3.000000   1.500000   0.000000
    46  C    7.500000   6.000000   4.500000   3.000000   1.500000
    47  C    4.743416   6.184658   7.648529   9.124144  10.606602
    48  C    3.354102   4.743416   6.184658   7.648529   9.124144
    49  C    2.121320   3.354102   4.743416   6.184658   7.648529
    50  C    1.500000   2.121320   3.354102   4.743416   6.184658
                   46         47         48         49         50
    46  C    0.000000
    47  C   12.093387   0.000000
    48  C   10.606602   1.500000   0.000000
    49  C    9.124144   3.000000   1.500000   0.000000
    50  C    7.648529   4.500000   3.000000   1.500000   0.000000
 Symmetry turned off by external request.
 Stoichiometry    C50
 Framework group  CS[SG(C50)]
 Deg. of freedom    97
 Full point group                 CS      NOp   2
 Rotational constants (GHZ):      0.1204638      0.0372034      0.0284248
 Leave Link  202 at Mon Dec 15 22:08:45 2014, MaxMem=  1073741824 cpu:               0.0 elap:               0.0
 (Enter /home1/gaussian/gdv/H36/gdv/l301.exe)
 Top of link  301.    Mon Dec 15 22:08:45 2014        0.00 cpu,        0.00 elapsed
 Standard basis: STO-3G (5D, 7F)
 Ernie: Thresh=  0.10000D-02 Tol=  0.10000D-05 Strict=F.
   250 basis functions,   750 primitive gaussians,   250 cartesian basis functions
   150 alpha electrons      150 beta electrons
       nuclear repulsion energy      5011.9751513102 Hartrees.
 IExCor=    0 DFT=F Ex=HF Corr=None ExCW=0 ScaHFX=  1.000000
 ScaDFX=  1.000000  1.000000  1.000000  1.000000 ScalE2=  1.000000  1.000000
 IRadAn=      0 IRanWt=     -1 IRanGd=            0 ICorTp=0 IEmpDi=  4
 NAtoms=   50 NActive=   50 NUniq=   50 SFac= 1.00D+00 NAtFMM=   60 NAOKFM=F Big=F
 Integral buffers will be    131072 words long.
 Raffenetti 1 integral format.
 Two-electron integral symmetry is turned off.
 Leave Link  301 at Mon Dec 15 22:08:45 2014, MaxMem=  1073741824 cpu:               0.1 elap:               0.1
 (Enter /home1/gaussian/gdv/H36/gdv/l302.exe)
 Top of link  302.    Mon Dec 15 22:08:45 2014        0.00 cpu,        0.00 elapsed
 NPDir=0 NMtPBC=     1 NCelOv=     1 NCel=       1 NClECP=     1 NCelD=      1
         NCelK=      1 NCelE2=     1 NClLst=     1 CellRange=     0.0.
 One-electron integrals computed using PRISM.
 One-electron integral symmetry used in STVInt
 Top of OneElI        Mon Dec 15 22:08:45 2014        0.06 cpu,        0.06 elapsed
 ShPair: Thresh= 1.00D-13 NBox=     1 BxSize= 3.09D+01 RnKept= 1.90D+01
         NSMCal=                 5050 NSMKep=                2880
 After ShPair         Mon Dec 15 22:08:45 2014        0.03 cpu,        0.03 elapsed
 PrsmSu:  NPrtUS=   1 ThrOK=F IAlg=1 NPAlg=1 LenDen=           0.
 Top of Prism.        Mon Dec 15 22:08:45 2014        0.00 cpu,        0.00 elapsed
 Prism:   IPart=     0 DynPar=F LinDyn=F Incr=          28.
 End of Prism.        Mon Dec 15 22:08:45 2014        0.01 cpu,        0.01 elapsed
 PrSmSu:  NxtVal=             29.
 Bot of OneElI        Mon Dec 15 22:08:45 2014        0.00 cpu,        0.00 elapsed
 After ST integrals.  Mon Dec 15 22:08:45 2014        0.00 cpu,        0.00 elapsed
 Top of OneElI        Mon Dec 15 22:08:45 2014        0.00 cpu,        0.00 elapsed
 ShPair: Thresh= 1.00D-13 NBox=     1 BxSize= 2.58D+01 RnKept= 1.72D+01
         NSMCal=                 5050 NSMKep=                2542
 After ShPair         Mon Dec 15 22:08:45 2014        0.02 cpu,        0.02 elapsed
 PrsmSu:  NPrtUS=   1 ThrOK=F IAlg=1 NPAlg=1 LenDen=           0.
 Top of Prism.        Mon Dec 15 22:08:45 2014        0.00 cpu,        0.00 elapsed
 Prism:   IPart=     0 DynPar=F LinDyn=F Incr=         512.
 End of Prism.        Mon Dec 15 22:08:45 2014        0.14 cpu,        0.14 elapsed
 PrSmSu:  NxtVal=            513.
 Bot of OneElI        Mon Dec 15 22:08:45 2014        0.00 cpu,        0.00 elapsed
 After V integrals.   Mon Dec 15 22:08:45 2014        0.00 cpu,        0.00 elapsed
 After integral evalu Mon Dec 15 22:08:45 2014        0.00 cpu,        0.00 elapsed
 Top of SVDSVc.       Mon Dec 15 22:08:45 2014        0.00 cpu,        0.00 elapsed
 Bot of SVDSVc.       Mon Dec 15 22:08:45 2014        0.08 cpu,        0.08 elapsed
 NBasis=   250 RedAO= T EigKep=  1.70D-01  NBF=   250
 NBsUse=   250 1.00D-06 EigRej= -1.00D+00 NBFU=   250
 Leave Link  302 at Mon Dec 15 22:08:46 2014, MaxMem=  1073741824 cpu:               0.3 elap:               0.4
 (Enter /home1/gaussian/gdv/H36/gdv/l303.exe)
 Top of link  303.    Mon Dec 15 22:08:46 2014        0.00 cpu,        0.00 elapsed
 DipDrv:  MaxL=1.
 Top of OneElI        Mon Dec 15 22:08:46 2014        0.03 cpu,        0.03 elapsed
 ShPair: Thresh= 1.00D-13 NBox=     1 BxSize= 3.09D+01 RnKept= 1.72D+01
         NSMCal=                 5050 NSMKep=                2630
 After ShPair         Mon Dec 15 22:08:46 2014        0.03 cpu,        0.03 elapsed
 PrsmSu:  NPrtUS=   1 ThrOK=F IAlg=1 NPAlg=1 LenDen=           0.
 Top of Prism.        Mon Dec 15 22:08:46 2014        0.00 cpu,        0.00 elapsed
 Prism:   IPart=     0 DynPar=F LinDyn=F Incr=          26.
 End of Prism.        Mon Dec 15 22:08:46 2014        0.01 cpu,        0.01 elapsed
 PrSmSu:  NxtVal=             27.
 Bot of OneElI        Mon Dec 15 22:08:46 2014        0.00 cpu,        0.00 elapsed
 Leave Link  303 at Mon Dec 15 22:08:46 2014, MaxMem=  1073741824 cpu:               0.1 elap:               0.1
 (Enter /home1/gaussian/gdv/H36/gdv/l401.exe)
 Top of link  401.    Mon Dec 15 22:08:46 2014        0.00 cpu,        0.00 elapsed
 Initial guess from the checkpoint file:  "1.chk"
 After setup.         Mon Dec 15 22:08:46 2014        0.05 cpu,        0.05 elapsed
 B after Tr=     0.000000    0.000000    0.000000
         Rot=    1.000000    0.000000    0.000000    0.000000 Ang=   0.00 deg.
 Top of RdGes         Mon Dec 15 22:08:46 2014        0.03 cpu,        0.03 elapsed
 Guess basis will be translated and rotated to current coordinates.
 Top of OneElI        Mon Dec 15 22:08:46 2014        0.03 cpu,        0.02 elapsed
 ShPair: Thresh= 1.00D-13 NBox=     1 BxSize= 3.09D+01 RnKept= 1.72D+01
         NSMCal=                10000 NSMKep=                5160
 After ShPair         Mon Dec 15 22:08:46 2014        0.06 cpu,        0.06 elapsed
 PrsmSu:  NPrtUS=   1 ThrOK=F IAlg=1 NPAlg=1 LenDen=           0.
 Top of Prism.        Mon Dec 15 22:08:46 2014        0.00 cpu,        0.00 elapsed
 Prism:   IPart=     0 DynPar=F LinDyn=F Incr=          51.
 End of Prism.        Mon Dec 15 22:08:46 2014        0.00 cpu,        0.00 elapsed
 PrSmSu:  NxtVal=             52.
 Bot of OneElI        Mon Dec 15 22:08:46 2014        0.00 cpu,        0.00 elapsed
 After FrmPrj         Mon Dec 15 22:08:46 2014        0.01 cpu,        0.01 elapsed
 Top of GetGes        Mon Dec 15 22:08:46 2014        0.00 cpu,        0.00 elapsed
 After RotMO1         Mon Dec 15 22:08:46 2014        0.00 cpu,        0.00 elapsed
 After Projec         Mon Dec 15 22:08:46 2014        0.03 cpu,        0.03 elapsed
 End of RdGes         Mon Dec 15 22:08:46 2014        0.00 cpu,        0.00 elapsed
 Make guess           Mon Dec 15 22:08:46 2014        0.00 cpu,        0.00 elapsed
 Modify guess         Mon Dec 15 22:08:46 2014        0.00 cpu,        0.00 elapsed
 JPrj=2 DoOrth=T DoCkMO=T.
 Before Post          Mon Dec 15 22:08:46 2014        0.00 cpu,        0.00 elapsed
 Top OrthMO           Mon Dec 15 22:08:46 2014        0.00 cpu,        0.00 elapsed
 Bot OrthMO           Mon Dec 15 22:08:46 2014        0.03 cpu,        0.03 elapsed
 After Post1          Mon Dec 15 22:08:46 2014        0.01 cpu,        0.00 elapsed
 Form P               Mon Dec 15 22:08:46 2014        0.00 cpu,        0.00 elapsed
 Aft Post2            Mon Dec 15 22:08:46 2014        0.00 cpu,        0.00 elapsed
 Make files           Mon Dec 15 22:08:46 2014        0.00 cpu,        0.00 elapsed
 MOChek               Mon Dec 15 22:08:46 2014        0.01 cpu,        0.01 elapsed
 Leave Link  401 at Mon Dec 15 22:08:46 2014, MaxMem=  1073741824 cpu:               0.3 elap:               0.3
 (Enter /home1/gaussian/gdv/H36/gdv/l502.exe)
 Top of link  502.    Mon Dec 15 22:08:46 2014        0.00 cpu,        0.00 elapsed
 Keep R1 ints in memory in canonical form, NReq=500117832.
 FoFCou: FMM=F IPFlag=           0 FMFlag=           0 FMFlg1=           0
         NFxFlg=           0 DoJE=F BraDBF=F KetDBF=F FulRan=T
         wScrn=  0.000000 ICntrl=       600 IOpCl=  0 I1Cent=           0 NGrid=           0
         NMat0=    1 NMatS0=  31375 NMatT0=    0 NMatD0=    1 NMtDS0=    0 NMtDT0=    0
 Symmetry not used in FoFCou.
 ShPair: Thresh= 1.00D-10 NBox=     3 BxSize= 2.32D+01 RnKept= 1.60D+01
         NSMCal=                 5050 NSMKep=                2308
 After ShPair         Mon Dec 15 22:08:47 2014        1.46 cpu,        1.46 elapsed
 After ShPSch         Mon Dec 15 22:08:47 2014        0.03 cpu,        0.03 elapsed
 After FMMEnt         Mon Dec 15 22:08:47 2014        0.00 cpu,        0.00 elapsed
 After BoxK           Mon Dec 15 22:08:47 2014        0.00 cpu,        0.00 elapsed
 CoulSu:  IncDef=  1024 NBBP=        2664586 NTPThr=   100 NPartT=    1 Incr=        1024 LDynOK=F.
 CoulSu:  NPrtUS=   1 ThrOK=F IAlg=1 NPAlg=1 LenDen=           0 LWGrdD=           0 DoCopy=F.
 Top of PrismC.       Mon Dec 15 22:08:47 2014        0.00 cpu,        0.00 elapsed
 PrismC:  IPart=     0 DynPar=F LinDyn=F Incr=        1024 UseFst=F UseS4=T IGathr=1.
 End of PrismC.       Mon Dec 15 22:08:54 2014        6.73 cpu,        6.74 elapsed
 CoulSu:  NxtVal=           1025 LenVP=      581197807 MinMC=      33.
 After CoulSu         Mon Dec 15 22:08:54 2014        0.00 cpu,        0.00 elapsed
 Top of RegRaf.       Mon Dec 15 22:08:55 2014        0.49 cpu,        0.50 elapsed
 End of RegRaf.       Mon Dec 15 22:08:59 2014        3.92 cpu,        3.93 elapsed
 After RegRaf         Mon Dec 15 22:08:59 2014        0.00 cpu,        0.00 elapsed
 Two-electron integral symmetry not used.
 Closed shell SCF:
 Using DIIS extrapolation, IDIIS=  1040.
 NGot=  1073741824 LenX=   581402819 LenY=   581339878
 Requested convergence on RMS density matrix=1.00D-08 within 128 cycles.
 Requested convergence on MAX density matrix=1.00D-06.
 Requested convergence on             energy=1.00D-06.
 No special actions if energy rises.

 Start of iteration.  Mon Dec 15 22:08:59 2014        0.00 cpu,        0.00 elapsed
 Cycle   1  Pass 1  IDiag  1:
 After PChk2N.        Mon Dec 15 22:08:59 2014        0.01 cpu,        0.00 elapsed
 Before 2e terms.     Mon Dec 15 22:08:59 2014        0.00 cpu,        0.00 elapsed
 Top of FoFMem.       Mon Dec 15 22:08:59 2014        0.00 cpu,        0.00 elapsed
 End of FoFMem.       Mon Dec 15 22:08:59 2014        0.60 cpu,        0.60 elapsed
 After 2e             Mon Dec 15 22:08:59 2014        0.00 cpu,        0.00 elapsed
 E= -1863.81691747438    
 DIIS: error= 5.48D-09 at cycle   1 NSaved=   1.
 NSaved= 1 IEnMin= 1 EnMin= -1863.81691747438     IErMin= 1 ErrMin= 5.48D-09
 ErrMax= 5.48D-09  0.00D+00 EMaxC= 1.00D-01 BMatC= 7.52D-15 BMatP= 7.52D-15
 IDIUse=1 WtCom= 1.00D+00 WtEn= 0.00D+00
 Coeff-Com:  0.100D+01
 Coeff:      0.100D+01
 After DIIS           Mon Dec 15 22:08:59 2014        0.01 cpu,        0.01 elapsed
 Top of DgFock.       Mon Dec 15 22:08:59 2014        0.00 cpu,        0.00 elapsed
 Gap=     0.150 Goal=   None    Shift=    0.000
 End of DgFock.       Mon Dec 15 22:08:59 2014        0.04 cpu,        0.04 elapsed
 End of iteration.    Mon Dec 15 22:08:59 2014        0.00 cpu,        0.00 elapsed
 RMSDP=1.47D-09 MaxDP=4.86D-08              OVMax= 0.00D+00

 Start of iteration.  Mon Dec 15 22:08:59 2014        0.00 cpu,        0.00 elapsed
 After CycOpn         Mon Dec 15 22:08:59 2014        0.00 cpu,        0.00 elapsed
 After AbSyMO         Mon Dec 15 22:08:59 2014        0.00 cpu,        0.00 elapsed
 After Virial         Mon Dec 15 22:08:59 2014        0.00 cpu,        0.00 elapsed
 SCF Done:  E(RHF) =  -1863.81691747     A.U. after    1 cycles
            NFock=  1  Conv=0.15D-08     -V/T= 1.9985
 KE= 1.866680584131D+03 PE=-1.439158170722D+04 EE= 5.649109054304D+03
 After Annil          Mon Dec 15 22:08:59 2014        0.00 cpu,        0.00 elapsed
 Before W             Mon Dec 15 22:08:59 2014        0.00 cpu,        0.00 elapsed
 After W              Mon Dec 15 22:08:59 2014        0.01 cpu,        0.01 elapsed
 Leave Link  502 at Mon Dec 15 22:08:59 2014, MaxMem=  1073741824 cpu:              13.3 elap:              13.3
 (Enter /home1/gaussian/gdv/H36/gdv/l601.exe)
 Top of link  601.    Mon Dec 15 22:08:59 2014        0.00 cpu,        0.00 elapsed
 Copying SCF densities to generalized density rwf, IOpCl= 0 IROHF=0.

 **********************************************************************

            Population analysis using the SCF density.

 **********************************************************************

 Alpha  occ. eigenvalues --  -11.13147 -11.11506 -11.09938 -11.09896 -11.09724
 Alpha  occ. eigenvalues --  -11.09602 -11.09309 -11.09259 -11.08703 -11.08405
 Alpha  occ. eigenvalues --  -11.08399 -11.07969 -11.07673 -11.07656 -11.07484
 Alpha  occ. eigenvalues --  -11.07148 -11.06998 -11.06490 -11.05918 -11.05426
 Alpha  occ. eigenvalues --  -11.05323 -11.05296 -11.05282 -11.05172 -11.05125
 Alpha  occ. eigenvalues --  -11.04793 -11.04752 -11.04542 -11.04237 -11.04181
 Alpha  occ. eigenvalues --  -11.03827 -11.03728 -11.03593 -11.03592 -11.03416
 Alpha  occ. eigenvalues --  -11.03306 -11.03280 -11.03250 -11.03198 -11.03114
 Alpha  occ. eigenvalues --  -11.03091 -11.02556 -11.02411 -11.02021 -11.00581
 Alpha  occ. eigenvalues --  -10.99331 -10.98217 -10.98200 -10.97514 -10.96638
 Alpha  occ. eigenvalues --   -1.27308  -1.26224  -1.23070  -1.20800  -1.19195
 Alpha  occ. eigenvalues --   -1.17289  -1.15990  -1.13679  -1.11350  -1.10633
 Alpha  occ. eigenvalues --   -1.08352  -1.06962  -1.04827  -1.02044  -1.01061
 Alpha  occ. eigenvalues --   -1.00147  -0.97852  -0.96714  -0.94626  -0.93990
 Alpha  occ. eigenvalues --   -0.92980  -0.91738  -0.90930  -0.88936  -0.86623
 Alpha  occ. eigenvalues --   -0.85569  -0.83056  -0.82640  -0.80126  -0.79087
 Alpha  occ. eigenvalues --   -0.75660  -0.74545  -0.73582  -0.72793  -0.70864
 Alpha  occ. eigenvalues --   -0.69436  -0.67900  -0.66177  -0.65346  -0.64966
 Alpha  occ. eigenvalues --   -0.64469  -0.63114  -0.62230  -0.61454  -0.60893
 Alpha  occ. eigenvalues --   -0.60303  -0.59938  -0.59087  -0.57128  -0.56679
 Alpha  occ. eigenvalues --   -0.55596  -0.55341  -0.54991  -0.53542  -0.52158
 Alpha  occ. eigenvalues --   -0.51922  -0.49472  -0.48988  -0.47714  -0.47374
 Alpha  occ. eigenvalues --   -0.46791  -0.45996  -0.45098  -0.44648  -0.43404
 Alpha  occ. eigenvalues --   -0.42764  -0.41508  -0.41328  -0.40072  -0.38877
 Alpha  occ. eigenvalues --   -0.37814  -0.36992  -0.36872  -0.36151  -0.35458
 Alpha  occ. eigenvalues --   -0.33054  -0.32835  -0.31698  -0.29716  -0.28929
 Alpha  occ. eigenvalues --   -0.28722  -0.28232  -0.27463  -0.26287  -0.25620
 Alpha  occ. eigenvalues --   -0.25414  -0.24215  -0.24007  -0.23189  -0.22964
 Alpha  occ. eigenvalues --   -0.22058  -0.20927  -0.19929  -0.19856  -0.19201
 Alpha  occ. eigenvalues --   -0.17953  -0.16425  -0.14599  -0.13417  -0.11985
 Alpha virt. eigenvalues --    0.03034   0.04192   0.07864   0.08298   0.08793
 Alpha virt. eigenvalues --    0.10319   0.10868   0.11104   0.12708   0.12815
 Alpha virt. eigenvalues --    0.14477   0.16747   0.17684   0.19118   0.19941
 Alpha virt. eigenvalues --    0.20703   0.22109   0.23208   0.25247   0.26195
 Alpha virt. eigenvalues --    0.26324   0.26382   0.28355   0.29133   0.29481
 Alpha virt. eigenvalues --    0.30182   0.30578   0.30658   0.31249   0.32206
 Alpha virt. eigenvalues --    0.34221   0.35285   0.36130   0.36520   0.36660
 Alpha virt. eigenvalues --    0.38623   0.38854   0.40753   0.40996   0.41965
 Alpha virt. eigenvalues --    0.42500   0.43077   0.43379   0.44661   0.45702
 Alpha virt. eigenvalues --    0.46889   0.48838   0.48915   0.50737   0.51394
 Alpha virt. eigenvalues --    0.55149   0.55876   0.56393   0.59754   0.60130
 Alpha virt. eigenvalues --    0.63122   0.65122   0.66999   0.69644   0.73012
 Alpha virt. eigenvalues --    0.75075   0.76114   0.77929   0.78985   0.79230
 Alpha virt. eigenvalues --    0.84035   0.84649   0.84959   0.87295   0.88599
 Alpha virt. eigenvalues --    0.89805   0.89954   0.90498   0.91120   0.92238
 Alpha virt. eigenvalues --    0.93136   0.93809   0.95122   0.96524   0.99325
 Alpha virt. eigenvalues --    0.99979   1.00395   1.01422   1.01991   1.02499
 Alpha virt. eigenvalues --    1.03038   1.03992   1.06117   1.06945   1.09302
 Alpha virt. eigenvalues --    1.10059   1.10905   1.12732   1.13554   1.14856
 Alpha virt. eigenvalues --    1.16625   1.17439   1.17973   1.19211   1.23278
          Condensed to atoms (all electrons):
               1          2          3          4          5          6
     1  C    5.391275   0.364984  -0.004210  -0.000017   0.000000   0.000000
     2  C    0.364984   5.185873   0.388698  -0.002649  -0.000020   0.000000
     3  C   -0.004210   0.388698   5.052363   0.378532  -0.003712  -0.000019
     4  C   -0.000017  -0.002649   0.378532   5.084333   0.369906  -0.005654
     5  C    0.000000  -0.000020  -0.003712   0.369906   4.896709   0.476447
     6  C    0.000000   0.000000  -0.000019  -0.005654   0.476447   4.958008
     7  C    0.000000   0.000000   0.000000   0.000033  -0.010554   0.554118
     8  C    0.000000   0.000000   0.000000   0.000000   0.000045  -0.009424
     9  C    0.000000   0.000000   0.000000   0.000000   0.000000   0.000040
    10  C    0.000000   0.000000   0.000000   0.000000   0.000000   0.000000
    11  C    0.339248  -0.087767   0.003269  -0.000045   0.000000   0.000000
    12  C   -0.003926   0.003943  -0.000043   0.000001   0.000000   0.000000
    13  C   -0.000016  -0.000045   0.000000   0.000000   0.000000   0.000000
    14  C    0.000000   0.000000   0.000000   0.000000   0.000000   0.000000
    15  C    0.000000   0.000000   0.000000   0.000000   0.000000   0.000000
    16  C    0.000000   0.000000   0.000000   0.000000   0.000000   0.000000
    17  C    0.000000   0.000000   0.000000   0.000000   0.000000   0.000000
    18  C    0.000000   0.000000   0.000000   0.000000   0.000000   0.000000
    19  C    0.000000   0.000000   0.000000   0.000000   0.000000   0.000000
    20  C   -0.092160   0.337179  -0.134801   0.004620  -0.000032   0.000000
    21  C    0.002897   0.002229   0.002845   0.000116   0.000000   0.000000
    22  C   -0.000036  -0.000170  -0.000043  -0.000001   0.000000   0.000000
    23  C    0.000000   0.000000   0.000000   0.000000   0.000000   0.000000
    24  C    0.000000   0.000000   0.000000   0.000000   0.000000   0.000000
    25  C    0.000000   0.000000   0.000000   0.000000   0.000000   0.000000
    26  C    0.000000   0.000000   0.000000   0.000000   0.000000   0.000000
    27  C    0.000000   0.000000   0.000000   0.000000   0.000000   0.000000
    28  C    0.000000   0.000000   0.000000   0.000000   0.000000   0.000000
    29  C    0.002466  -0.107204   0.375460  -0.111095   0.002997  -0.000027
    30  C   -0.000057   0.002703   0.007908   0.000608  -0.000032   0.000000
    31  C    0.000000  -0.000051  -0.000184  -0.000039   0.000000   0.000000
    32  C    0.000000   0.000000   0.000000   0.000000   0.000000   0.000000
    33  C    0.000000   0.000000   0.000000   0.000000   0.000000   0.000000
    34  C    0.000000   0.000000   0.000000   0.000000   0.000000   0.000000
    35  C    0.000000   0.000000   0.000000   0.000000   0.000000   0.000000
    36  C    0.000000   0.000000   0.000000   0.000000   0.000000   0.000000
    37  C    0.000000   0.000000   0.000000   0.000000   0.000000   0.000000
    38  C   -0.000032   0.004106  -0.139426   0.397792  -0.106692   0.002646
    39  C    0.000001   0.000130   0.001323   0.000224   0.002700   0.000046
    40  C    0.000000   0.000000  -0.000028  -0.000103  -0.000030   0.000000
    41  C    0.000000   0.000000   0.000000   0.000000   0.000000   0.000000
    42  C    0.000000   0.000000   0.000000   0.000000   0.000000   0.000000
    43  C    0.000000   0.000000   0.000000   0.000000   0.000000   0.000000
    44  C    0.000000   0.000000   0.000000   0.000000   0.000000   0.000000
    45  C    0.000000   0.000000   0.000000   0.000000   0.000000   0.000000
    46  C    0.000000   0.000000   0.000000   0.000000   0.000000   0.000000
    47  C    0.000000  -0.000053   0.004697  -0.102014   0.367293  -0.046688
    48  C    0.000000   0.000000  -0.000057   0.003231  -0.005862  -0.000644
    49  C    0.000000   0.000000   0.000000  -0.000039  -0.000013  -0.000003
    50  C    0.000000   0.000000   0.000000   0.000000   0.000000   0.000000
               7          8          9         10         11         12
     1  C    0.000000   0.000000   0.000000   0.000000   0.339248  -0.003926
     2  C    0.000000   0.000000   0.000000   0.000000  -0.087767   0.003943
     3  C    0.000000   0.000000   0.000000   0.000000   0.003269  -0.000043
     4  C    0.000033   0.000000   0.000000   0.000000  -0.000045   0.000001
     5  C   -0.010554   0.000045   0.000000   0.000000   0.000000   0.000000
     6  C    0.554118  -0.009424   0.000040   0.000000   0.000000   0.000000
     7  C    4.996798   0.547512  -0.010488   0.000040   0.000000   0.000000
     8  C    0.547512   4.880805   0.522539  -0.007439   0.000000   0.000000
     9  C   -0.010488   0.522539   5.191489   0.475903   0.000000   0.000000
    10  C    0.000040  -0.007439   0.475903   5.455895   0.000000   0.000000
    11  C    0.000000   0.000000   0.000000   0.000000   5.162532   0.392763
    12  C    0.000000   0.000000   0.000000   0.000000   0.392763   5.065676
    13  C    0.000000   0.000000   0.000000   0.000000  -0.002554   0.337316
    14  C    0.000000   0.000000   0.000000   0.000000  -0.000022  -0.003613
    15  C    0.000000   0.000000   0.000000   0.000000   0.000000  -0.000010
    16  C    0.000000   0.000000   0.000000   0.000000   0.000000   0.000000
    17  C    0.000000   0.000000   0.000000   0.000000   0.000000   0.000000
    18  C    0.000000   0.000000   0.000000   0.000000   0.000000   0.000000
    19  C    0.000000   0.000000   0.000000   0.000000   0.000000   0.000000
    20  C    0.000000   0.000000   0.000000   0.000000   0.353382  -0.135152
    21  C    0.000000   0.000000   0.000000   0.000000  -0.109015   0.426787
    22  C    0.000000   0.000000   0.000000   0.000000   0.004880  -0.134848
    23  C    0.000000   0.000000   0.000000   0.000000  -0.000046   0.004326
    24  C    0.000000   0.000000   0.000000   0.000000   0.000000  -0.000024
    25  C    0.000000   0.000000   0.000000   0.000000   0.000000   0.000000
    26  C    0.000000   0.000000   0.000000   0.000000   0.000000   0.000000
    27  C    0.000000   0.000000   0.000000   0.000000   0.000000   0.000000
    28  C    0.000000   0.000000   0.000000   0.000000   0.000000   0.000000
    29  C    0.000000   0.000000   0.000000   0.000000   0.000613   0.000926
    30  C    0.000000   0.000000   0.000000   0.000000   0.000832   0.006563
    31  C    0.000000   0.000000   0.000000   0.000000   0.000084   0.001460
    32  C    0.000000   0.000000   0.000000   0.000000   0.000000  -0.000041
    33  C    0.000000   0.000000   0.000000   0.000000   0.000000   0.000001
    34  C    0.000000   0.000000   0.000000   0.000000   0.000000   0.000000
    35  C    0.000000   0.000000   0.000000   0.000000   0.000000   0.000000
    36  C    0.000000   0.000000   0.000000   0.000000   0.000000   0.000000
    37  C    0.000000   0.000000   0.000000   0.000000   0.000000   0.000000
    38  C    0.000008   0.000000   0.000000   0.000000  -0.000121  -0.000034
    39  C    0.000000   0.000000   0.000000   0.000000  -0.000047  -0.000161
    40  C    0.000000   0.000000   0.000000   0.000000   0.000001  -0.000035
    41  C    0.000000   0.000000   0.000000   0.000000   0.000000   0.000000
    42  C    0.000000   0.000000   0.000000   0.000000   0.000000   0.000000
    43  C    0.000000   0.000000   0.000000   0.000000   0.000000   0.000000
    44  C    0.000000   0.000000   0.000000   0.000000   0.000000   0.000000
    45  C    0.000000   0.000000   0.000000   0.000000   0.000000   0.000000
    46  C    0.000000   0.000000   0.000000   0.000000   0.000000   0.000000
    47  C   -0.001180  -0.000011   0.000000   0.000000   0.000000   0.000000
    48  C   -0.000054   0.000000   0.000000   0.000000   0.000000   0.000000
    49  C    0.000001   0.000000   0.000000   0.000000   0.000000   0.000000
    50  C    0.000000   0.000000   0.000000   0.000000   0.000000   0.000000
              13         14         15         16         17         18
     1  C   -0.000016   0.000000   0.000000   0.000000   0.000000   0.000000
     2  C   -0.000045   0.000000   0.000000   0.000000   0.000000   0.000000
     3  C    0.000000   0.000000   0.000000   0.000000   0.000000   0.000000
     4  C    0.000000   0.000000   0.000000   0.000000   0.000000   0.000000
     5  C    0.000000   0.000000   0.000000   0.000000   0.000000   0.000000
     6  C    0.000000   0.000000   0.000000   0.000000   0.000000   0.000000
     7  C    0.000000   0.000000   0.000000   0.000000   0.000000   0.000000
     8  C    0.000000   0.000000   0.000000   0.000000   0.000000   0.000000
     9  C    0.000000   0.000000   0.000000   0.000000   0.000000   0.000000
    10  C    0.000000   0.000000   0.000000   0.000000   0.000000   0.000000
    11  C   -0.002554  -0.000022   0.000000   0.000000   0.000000   0.000000
    12  C    0.337316  -0.003613  -0.000010   0.000000   0.000000   0.000000
    13  C    5.094242   0.404449  -0.004065  -0.000023   0.000000   0.000000
    14  C    0.404449   5.053155   0.340974  -0.003202  -0.000011   0.000000
    15  C   -0.004065   0.340974   5.173613   0.399496  -0.004713  -0.000017
    16  C   -0.000023  -0.003202   0.399496   5.118689   0.392647  -0.002800
    17  C    0.000000  -0.000011  -0.004713   0.392647   5.122485   0.347100
    18  C    0.000000   0.000000  -0.000017  -0.002800   0.347100   5.162219
    19  C    0.000000   0.000000   0.000000  -0.000018  -0.003255   0.351962
    20  C    0.005007  -0.000031   0.000000   0.000000   0.000000   0.000000
    21  C   -0.113722   0.002986  -0.000028   0.000000   0.000000   0.000000
    22  C    0.398465  -0.120511   0.005287  -0.000038   0.000000   0.000000
    23  C   -0.104030   0.404029  -0.140158   0.003501  -0.000023   0.000000
    24  C    0.003523  -0.125829   0.415773  -0.130651   0.002877  -0.000045
    25  C   -0.000040   0.004970  -0.138179   0.337255  -0.137830   0.005302
    26  C    0.000000  -0.000034   0.002769  -0.129941   0.405507  -0.090837
    27  C    0.000000   0.000000  -0.000021   0.004117  -0.168290   0.334403
    28  C    0.000000   0.000000   0.000000  -0.000041   0.004832  -0.072735
    29  C    0.000059   0.000001   0.000000   0.000000   0.000000   0.000000
    30  C    0.001836  -0.000032   0.000001   0.000000   0.000000   0.000000
    31  C    0.001715   0.002634   0.000011   0.000000   0.000000   0.000000
    32  C    0.002813   0.005132   0.001252   0.000033   0.000001   0.000000
    33  C    0.000018   0.001109   0.009904   0.004570   0.000031   0.000002
    34  C    0.000000   0.000038   0.004119   0.011577   0.004221   0.000073
    35  C    0.000000   0.000001  -0.000013   0.005299   0.012524  -0.002855
    36  C    0.000000   0.000000   0.000001   0.000095   0.000637  -0.006582
    37  C    0.000000   0.000000   0.000000   0.000001  -0.000103   0.000688
    38  C    0.000000   0.000000   0.000000   0.000000   0.000000   0.000000
    39  C   -0.000037   0.000001   0.000000   0.000000   0.000000   0.000000
    40  C   -0.000177  -0.000047  -0.000001   0.000000   0.000000   0.000000
    41  C   -0.000042  -0.000163  -0.000026   0.000001   0.000000   0.000000
    42  C    0.000001  -0.000042  -0.000194  -0.000045   0.000000   0.000000
    43  C    0.000000   0.000001  -0.000044  -0.000257  -0.000062  -0.000001
    44  C    0.000000   0.000000   0.000000  -0.000060  -0.000174   0.000006
    45  C    0.000000   0.000000   0.000000  -0.000001   0.000005   0.000096
    46  C    0.000000   0.000000   0.000000   0.000000   0.000001  -0.000025
    47  C    0.000000   0.000000   0.000000   0.000000   0.000000   0.000000
    48  C    0.000000   0.000000   0.000000   0.000000   0.000000   0.000000
    49  C    0.000000   0.000000   0.000000   0.000000   0.000000   0.000000
    50  C    0.000000   0.000001   0.000000   0.000000   0.000000   0.000000
              19         20         21         22         23         24
     1  C    0.000000  -0.092160   0.002897  -0.000036   0.000000   0.000000
     2  C    0.000000   0.337179   0.002229  -0.000170   0.000000   0.000000
     3  C    0.000000  -0.134801   0.002845  -0.000043   0.000000   0.000000
     4  C    0.000000   0.004620   0.000116  -0.000001   0.000000   0.000000
     5  C    0.000000  -0.000032   0.000000   0.000000   0.000000   0.000000
     6  C    0.000000   0.000000   0.000000   0.000000   0.000000   0.000000
     7  C    0.000000   0.000000   0.000000   0.000000   0.000000   0.000000
     8  C    0.000000   0.000000   0.000000   0.000000   0.000000   0.000000
     9  C    0.000000   0.000000   0.000000   0.000000   0.000000   0.000000
    10  C    0.000000   0.000000   0.000000   0.000000   0.000000   0.000000
    11  C    0.000000   0.353382  -0.109015   0.004880  -0.000046   0.000000
    12  C    0.000000  -0.135152   0.426787  -0.134848   0.004326  -0.000024
    13  C    0.000000   0.005007  -0.113722   0.398465  -0.104030   0.003523
    14  C    0.000000  -0.000031   0.002986  -0.120511   0.404029  -0.125829
    15  C    0.000000   0.000000  -0.000028   0.005287  -0.140158   0.415773
    16  C   -0.000018   0.000000   0.000000  -0.000038   0.003501  -0.130651
    17  C   -0.003255   0.000000   0.000000   0.000000  -0.000023   0.002877
    18  C    0.351962   0.000000   0.000000   0.000000   0.000000  -0.000045
    19  C    5.371515   0.000000   0.000000   0.000000   0.000000   0.000000
    20  C    0.000000   5.412026   0.153728   0.012406  -0.000145   0.000000
    21  C    0.000000   0.153728   5.411542   0.229836   0.002700  -0.000069
    22  C    0.000000   0.012406   0.229836   5.441827   0.262939   0.008518
    23  C    0.000000  -0.000145   0.002700   0.262939   5.427870   0.152072
    24  C    0.000000   0.000000  -0.000069   0.008518   0.152072   5.387121
    25  C   -0.000041   0.000000   0.000000  -0.000212   0.013293   0.317632
    26  C    0.002531   0.000000   0.000000   0.000000  -0.000085   0.006596
    27  C   -0.101786   0.000000   0.000000   0.000000   0.000000  -0.000101
    28  C    0.362267   0.000000   0.000000   0.000000   0.000000   0.000000
    29  C    0.000000   0.250060  -0.163027   0.004439  -0.000029   0.000000
    30  C    0.000000  -0.181332   0.288157  -0.171677   0.001921  -0.000019
    31  C    0.000000   0.004659  -0.155821   0.215915  -0.150234   0.003507
    32  C    0.000000  -0.000024   0.001239  -0.151076   0.263953  -0.179893
    33  C    0.000000   0.000000  -0.000019   0.004077  -0.195679   0.260180
    34  C    0.000000   0.000000   0.000000  -0.000046   0.002688  -0.172952
    35  C   -0.000012   0.000000   0.000000   0.000000  -0.000018   0.000123
    36  C    0.003161   0.000000   0.000000   0.000000   0.000000  -0.000039
    37  C   -0.004495   0.000000   0.000000   0.000000   0.000000   0.000000
    38  C    0.000000   0.012091   0.003490   0.000026   0.000001   0.000000
    39  C    0.000000   0.004091   0.014968   0.004533  -0.000016   0.000000
    40  C    0.000000  -0.000010   0.004755   0.012792   0.005169   0.000205
    41  C    0.000000   0.000001  -0.000003   0.004900   0.014097   0.002125
    42  C    0.000000   0.000000   0.000000   0.000051   0.004185   0.012874
    43  C    0.000000   0.000000   0.000000  -0.000001  -0.000036   0.004373
    44  C    0.000001   0.000000   0.000000   0.000000   0.000001   0.000028
    45  C   -0.000027   0.000000   0.000000   0.000000   0.000000   0.000002
    46  C   -0.000003   0.000000   0.000000   0.000000   0.000000   0.000000
    47  C    0.000000  -0.000170  -0.000047   0.000001   0.000000   0.000000
    48  C    0.000000  -0.000037  -0.000162  -0.000035   0.000000   0.000000
    49  C    0.000000   0.000000  -0.000036  -0.000165  -0.000035   0.000001
    50  C    0.000000   0.000000   0.000001  -0.000032  -0.000161  -0.000062
              25         26         27         28         29         30
     1  C    0.000000   0.000000   0.000000   0.000000   0.002466  -0.000057
     2  C    0.000000   0.000000   0.000000   0.000000  -0.107204   0.002703
     3  C    0.000000   0.000000   0.000000   0.000000   0.375460   0.007908
     4  C    0.000000   0.000000   0.000000   0.000000  -0.111095   0.000608
     5  C    0.000000   0.000000   0.000000   0.000000   0.002997  -0.000032
     6  C    0.000000   0.000000   0.000000   0.000000  -0.000027   0.000000
     7  C    0.000000   0.000000   0.000000   0.000000   0.000000   0.000000
     8  C    0.000000   0.000000   0.000000   0.000000   0.000000   0.000000
     9  C    0.000000   0.000000   0.000000   0.000000   0.000000   0.000000
    10  C    0.000000   0.000000   0.000000   0.000000   0.000000   0.000000
    11  C    0.000000   0.000000   0.000000   0.000000   0.000613   0.000832
    12  C    0.000000   0.000000   0.000000   0.000000   0.000926   0.006563
    13  C   -0.000040   0.000000   0.000000   0.000000   0.000059   0.001836
    14  C    0.004970  -0.000034   0.000000   0.000000   0.000001  -0.000032
    15  C   -0.138179   0.002769  -0.000021   0.000000   0.000000   0.000001
    16  C    0.337255  -0.129941   0.004117  -0.000041   0.000000   0.000000
    17  C   -0.137830   0.405507  -0.168290   0.004832   0.000000   0.000000
    18  C    0.005302  -0.090837   0.334403  -0.072735   0.000000   0.000000
    19  C   -0.000041   0.002531  -0.101786   0.362267   0.000000   0.000000
    20  C    0.000000   0.000000   0.000000   0.000000   0.250060  -0.181332
    21  C    0.000000   0.000000   0.000000   0.000000  -0.163027   0.288157
    22  C   -0.000212   0.000000   0.000000   0.000000   0.004439  -0.171677
    23  C    0.013293  -0.000085   0.000000   0.000000  -0.000029   0.001921
    24  C    0.317632   0.006596  -0.000101   0.000000   0.000000  -0.000019
    25  C    5.462671   0.309617   0.017293  -0.000191   0.000000   0.000000
    26  C    0.309617   5.294801   0.057724  -0.001352   0.000000   0.000000
    27  C    0.017293   0.057724   5.498781   0.261149   0.000000   0.000000
    28  C   -0.000191  -0.001352   0.261149   5.118974   0.000000   0.000000
    29  C    0.000000   0.000000   0.000000   0.000000   5.440795   0.274825
    30  C    0.000000   0.000000   0.000000   0.000000   0.274825   5.369552
    31  C   -0.000046   0.000000   0.000000   0.000000   0.014392   0.292817
    32  C    0.003296  -0.000021   0.000000   0.000000  -0.000144   0.007674
    33  C   -0.169837  -0.000200  -0.000039   0.000000   0.000000  -0.000086
    34  C    0.113446  -0.193130   0.003757  -0.000043   0.000000   0.000000
    35  C   -0.198095   0.322078  -0.132407   0.006284   0.000000   0.000000
    36  C    0.003239  -0.121351   0.424695  -0.091247   0.000000   0.000000
    37  C   -0.000044   0.006430  -0.098097   0.479919   0.000000   0.000000
    38  C    0.000000   0.000000   0.000000   0.000000   0.181246  -0.168625
    39  C    0.000000   0.000000   0.000000   0.000000  -0.161005   0.256264
    40  C    0.000001   0.000000   0.000000   0.000000   0.003304  -0.165310
    41  C   -0.000031   0.000001   0.000000   0.000000  -0.000029   0.002587
    42  C    0.003837   0.000001   0.000001   0.000000   0.000000  -0.000016
    43  C    0.012065   0.005281   0.000096   0.000001   0.000000   0.000000
    44  C    0.004284   0.010824   0.000354  -0.000091   0.000000   0.000000
    45  C    0.000084  -0.003123  -0.005433   0.000559   0.000000   0.000000
    46  C    0.000000  -0.000009   0.003171  -0.004782   0.000000   0.000000
    47  C    0.000000   0.000000   0.000000   0.000000   0.002392   0.002679
    48  C    0.000000   0.000000   0.000000   0.000000   0.002104   0.004866
    49  C    0.000000   0.000000   0.000000   0.000000   0.000034   0.001602
    50  C    0.000000   0.000000   0.000000   0.000000   0.000000  -0.000018
              31         32         33         34         35         36
     1  C    0.000000   0.000000   0.000000   0.000000   0.000000   0.000000
     2  C   -0.000051   0.000000   0.000000   0.000000   0.000000   0.000000
     3  C   -0.000184   0.000000   0.000000   0.000000   0.000000   0.000000
     4  C   -0.000039   0.000000   0.000000   0.000000   0.000000   0.000000
     5  C    0.000000   0.000000   0.000000   0.000000   0.000000   0.000000
     6  C    0.000000   0.000000   0.000000   0.000000   0.000000   0.000000
     7  C    0.000000   0.000000   0.000000   0.000000   0.000000   0.000000
     8  C    0.000000   0.000000   0.000000   0.000000   0.000000   0.000000
     9  C    0.000000   0.000000   0.000000   0.000000   0.000000   0.000000
    10  C    0.000000   0.000000   0.000000   0.000000   0.000000   0.000000
    11  C    0.000084   0.000000   0.000000   0.000000   0.000000   0.000000
    12  C    0.001460  -0.000041   0.000001   0.000000   0.000000   0.000000
    13  C    0.001715   0.002813   0.000018   0.000000   0.000000   0.000000
    14  C    0.002634   0.005132   0.001109   0.000038   0.000001   0.000000
    15  C    0.000011   0.001252   0.009904   0.004119  -0.000013   0.000001
    16  C    0.000000   0.000033   0.004570   0.011577   0.005299   0.000095
    17  C    0.000000   0.000001   0.000031   0.004221   0.012524   0.000637
    18  C    0.000000   0.000000   0.000002   0.000073  -0.002855  -0.006582
    19  C    0.000000   0.000000   0.000000   0.000000  -0.000012   0.003161
    20  C    0.004659  -0.000024   0.000000   0.000000   0.000000   0.000000
    21  C   -0.155821   0.001239  -0.000019   0.000000   0.000000   0.000000
    22  C    0.215915  -0.151076   0.004077  -0.000046   0.000000   0.000000
    23  C   -0.150234   0.263953  -0.195679   0.002688  -0.000018   0.000000
    24  C    0.003507  -0.179893   0.260180  -0.172952   0.000123  -0.000039
    25  C   -0.000046   0.003296  -0.169837   0.113446  -0.198095   0.003239
    26  C    0.000000  -0.000021  -0.000200  -0.193130   0.322078  -0.121351
    27  C    0.000000   0.000000  -0.000039   0.003757  -0.132407   0.424695
    28  C    0.000000   0.000000   0.000000  -0.000043   0.006284  -0.091247
    29  C    0.014392  -0.000144   0.000000   0.000000   0.000000   0.000000
    30  C    0.292817   0.007674  -0.000086   0.000000   0.000000   0.000000
    31  C    5.435769   0.363328   0.011385  -0.000195   0.000000   0.000000
    32  C    0.363328   5.474702   0.204073   0.013672  -0.000093   0.000000
    33  C    0.011385   0.204073   5.382787   0.335560   0.006500  -0.000087
    34  C   -0.000195   0.013672   0.335560   5.468423   0.293898   0.016370
    35  C    0.000000  -0.000093   0.006500   0.293898   5.345002   0.040107
    36  C    0.000000   0.000000  -0.000087   0.016370   0.040107   5.462866
    37  C    0.000000   0.000000   0.000000  -0.000208   0.000544   0.263036
    38  C    0.004279  -0.000040   0.000000   0.000000   0.000000   0.000000
    39  C   -0.159571   0.001452  -0.000006   0.000000   0.000000   0.000000
    40  C    0.222000  -0.131457   0.001257  -0.000055   0.000000   0.000000
    41  C   -0.156243   0.236111  -0.160109   0.004915  -0.000034   0.000000
    42  C    0.002926  -0.164498   0.359986  -0.136008   0.002823  -0.000019
    43  C   -0.000029   0.004149  -0.130981   0.332700  -0.129138   0.003989
    44  C    0.000000  -0.000024   0.002653  -0.135467   0.431366  -0.163773
    45  C    0.000000   0.000000  -0.000044   0.005634  -0.100512   0.344797
    46  C    0.000000   0.000000   0.000000  -0.000042   0.002544  -0.096549
    47  C    0.000031  -0.000001   0.000000   0.000000   0.000000   0.000000
    48  C    0.001526   0.000017   0.000001   0.000000   0.000000   0.000000
    49  C    0.002099   0.002581  -0.000127   0.000000   0.000000   0.000000
    50  C    0.002315   0.001219   0.003509   0.000084  -0.000001   0.000000
              37         38         39         40         41         42
     1  C    0.000000  -0.000032   0.000001   0.000000   0.000000   0.000000
     2  C    0.000000   0.004106   0.000130   0.000000   0.000000   0.000000
     3  C    0.000000  -0.139426   0.001323  -0.000028   0.000000   0.000000
     4  C    0.000000   0.397792   0.000224  -0.000103   0.000000   0.000000
     5  C    0.000000  -0.106692   0.002700  -0.000030   0.000000   0.000000
     6  C    0.000000   0.002646   0.000046   0.000000   0.000000   0.000000
     7  C    0.000000   0.000008   0.000000   0.000000   0.000000   0.000000
     8  C    0.000000   0.000000   0.000000   0.000000   0.000000   0.000000
     9  C    0.000000   0.000000   0.000000   0.000000   0.000000   0.000000
    10  C    0.000000   0.000000   0.000000   0.000000   0.000000   0.000000
    11  C    0.000000  -0.000121  -0.000047   0.000001   0.000000   0.000000
    12  C    0.000000  -0.000034  -0.000161  -0.000035   0.000000   0.000000
    13  C    0.000000   0.000000  -0.000037  -0.000177  -0.000042   0.000001
    14  C    0.000000   0.000000   0.000001  -0.000047  -0.000163  -0.000042
    15  C    0.000000   0.000000   0.000000  -0.000001  -0.000026  -0.000194
    16  C    0.000001   0.000000   0.000000   0.000000   0.000001  -0.000045
    17  C   -0.000103   0.000000   0.000000   0.000000   0.000000   0.000000
    18  C    0.000688   0.000000   0.000000   0.000000   0.000000   0.000000
    19  C   -0.004495   0.000000   0.000000   0.000000   0.000000   0.000000
    20  C    0.000000   0.012091   0.004091  -0.000010   0.000001   0.000000
    21  C    0.000000   0.003490   0.014968   0.004755  -0.000003   0.000000
    22  C    0.000000   0.000026   0.004533   0.012792   0.004900   0.000051
    23  C    0.000000   0.000001  -0.000016   0.005169   0.014097   0.004185
    24  C    0.000000   0.000000   0.000000   0.000205   0.002125   0.012874
    25  C   -0.000044   0.000000   0.000000   0.000001  -0.000031   0.003837
    26  C    0.006430   0.000000   0.000000   0.000000   0.000001   0.000001
    27  C   -0.098097   0.000000   0.000000   0.000000   0.000000   0.000001
    28  C    0.479919   0.000000   0.000000   0.000000   0.000000   0.000000
    29  C    0.000000   0.181246  -0.161005   0.003304  -0.000029   0.000000
    30  C    0.000000  -0.168625   0.256264  -0.165310   0.002587  -0.000016
    31  C    0.000000   0.004279  -0.159571   0.222000  -0.156243   0.002926
    32  C    0.000000  -0.000040   0.001452  -0.131457   0.236111  -0.164498
    33  C    0.000000   0.000000  -0.000006   0.001257  -0.160109   0.359986
    34  C   -0.000208   0.000000   0.000000  -0.000055   0.004915  -0.136008
    35  C    0.000544   0.000000   0.000000   0.000000  -0.000034   0.002823
    36  C    0.263036   0.000000   0.000000   0.000000   0.000000  -0.000019
    37  C    5.086344   0.000000   0.000000   0.000000   0.000000   0.000000
    38  C    0.000000   5.368740   0.241056   0.008578  -0.000144   0.000000
    39  C    0.000000   0.241056   5.411409   0.199906   0.003798  -0.000057
    40  C    0.000000   0.008578   0.199906   5.407670   0.267528  -0.000779
    41  C    0.000000  -0.000144   0.003798   0.267528   5.348042   0.332595
    42  C    0.000000   0.000000  -0.000057  -0.000779   0.332595   5.247569
    43  C   -0.000045   0.000000   0.000000  -0.000033  -0.001656   0.374934
    44  C    0.005160   0.000000   0.000000   0.000000  -0.000017  -0.004541
    45  C   -0.074891   0.000000   0.000000   0.000000   0.000000  -0.000014
    46  C    0.347472   0.000000   0.000000   0.000000   0.000000   0.000000
    47  C    0.000000   0.325391  -0.106421   0.003956  -0.000045   0.000000
    48  C    0.000000  -0.115515   0.388972  -0.131284   0.004691  -0.000032
    49  C    0.000000   0.004557  -0.121076   0.388142  -0.101257   0.002246
    50  C    0.000000  -0.000046   0.003351  -0.082236   0.293100  -0.039637
              43         44         45         46         47         48
     1  C    0.000000   0.000000   0.000000   0.000000   0.000000   0.000000
     2  C    0.000000   0.000000   0.000000   0.000000  -0.000053   0.000000
     3  C    0.000000   0.000000   0.000000   0.000000   0.004697  -0.000057
     4  C    0.000000   0.000000   0.000000   0.000000  -0.102014   0.003231
     5  C    0.000000   0.000000   0.000000   0.000000   0.367293  -0.005862
     6  C    0.000000   0.000000   0.000000   0.000000  -0.046688  -0.000644
     7  C    0.000000   0.000000   0.000000   0.000000  -0.001180  -0.000054
     8  C    0.000000   0.000000   0.000000   0.000000  -0.000011   0.000000
     9  C    0.000000   0.000000   0.000000   0.000000   0.000000   0.000000
    10  C    0.000000   0.000000   0.000000   0.000000   0.000000   0.000000
    11  C    0.000000   0.000000   0.000000   0.000000   0.000000   0.000000
    12  C    0.000000   0.000000   0.000000   0.000000   0.000000   0.000000
    13  C    0.000000   0.000000   0.000000   0.000000   0.000000   0.000000
    14  C    0.000001   0.000000   0.000000   0.000000   0.000000   0.000000
    15  C   -0.000044   0.000000   0.000000   0.000000   0.000000   0.000000
    16  C   -0.000257  -0.000060  -0.000001   0.000000   0.000000   0.000000
    17  C   -0.000062  -0.000174   0.000005   0.000001   0.000000   0.000000
    18  C   -0.000001   0.000006   0.000096  -0.000025   0.000000   0.000000
    19  C    0.000000   0.000001  -0.000027  -0.000003   0.000000   0.000000
    20  C    0.000000   0.000000   0.000000   0.000000  -0.000170  -0.000037
    21  C    0.000000   0.000000   0.000000   0.000000  -0.000047  -0.000162
    22  C   -0.000001   0.000000   0.000000   0.000000   0.000001  -0.000035
    23  C   -0.000036   0.000001   0.000000   0.000000   0.000000   0.000000
    24  C    0.004373   0.000028   0.000002   0.000000   0.000000   0.000000
    25  C    0.012065   0.004284   0.000084   0.000000   0.000000   0.000000
    26  C    0.005281   0.010824  -0.003123  -0.000009   0.000000   0.000000
    27  C    0.000096   0.000354  -0.005433   0.003171   0.000000   0.000000
    28  C    0.000001  -0.000091   0.000559  -0.004782   0.000000   0.000000
    29  C    0.000000   0.000000   0.000000   0.000000   0.002392   0.002104
    30  C    0.000000   0.000000   0.000000   0.000000   0.002679   0.004866
    31  C   -0.000029   0.000000   0.000000   0.000000   0.000031   0.001526
    32  C    0.004149  -0.000024   0.000000   0.000000  -0.000001   0.000017
    33  C   -0.130981   0.002653  -0.000044   0.000000   0.000000   0.000001
    34  C    0.332700  -0.135467   0.005634  -0.000042   0.000000   0.000000
    35  C   -0.129138   0.431366  -0.100512   0.002544   0.000000   0.000000
    36  C    0.003989  -0.163773   0.344797  -0.096549   0.000000   0.000000
    37  C   -0.000045   0.005160  -0.074891   0.347472   0.000000   0.000000
    38  C    0.000000   0.000000   0.000000   0.000000   0.325391  -0.115515
    39  C    0.000000   0.000000   0.000000   0.000000  -0.106421   0.388972
    40  C   -0.000033   0.000000   0.000000   0.000000   0.003956  -0.131284
    41  C   -0.001656  -0.000017   0.000000   0.000000  -0.000045   0.004691
    42  C    0.374934  -0.004541  -0.000014   0.000000   0.000000  -0.000032
    43  C    5.100694   0.398868  -0.002542  -0.000021   0.000000   0.000000
    44  C    0.398868   5.147817   0.325297  -0.003408   0.000000   0.000000
    45  C   -0.002542   0.325297   5.147373   0.366089   0.000000   0.000000
    46  C   -0.000021  -0.003408   0.366089   5.394839   0.000000   0.000000
    47  C    0.000000   0.000000   0.000000   0.000000   5.129740   0.407978
    48  C    0.000000   0.000000   0.000000   0.000000   0.407978   5.082812
    49  C    0.000007   0.000000   0.000000   0.000000  -0.002765   0.358595
    50  C   -0.001654   0.000006   0.000000   0.000000  -0.000027  -0.002899
              49         50
     1  C    0.000000   0.000000
     2  C    0.000000   0.000000
     3  C    0.000000   0.000000
     4  C   -0.000039   0.000000
     5  C   -0.000013   0.000000
     6  C   -0.000003   0.000000
     7  C    0.000001   0.000000
     8  C    0.000000   0.000000
     9  C    0.000000   0.000000
    10  C    0.000000   0.000000
    11  C    0.000000   0.000000
    12  C    0.000000   0.000000
    13  C    0.000000   0.000000
    14  C    0.000000   0.000001
    15  C    0.000000   0.000000
    16  C    0.000000   0.000000
    17  C    0.000000   0.000000
    18  C    0.000000   0.000000
    19  C    0.000000   0.000000
    20  C    0.000000   0.000000
    21  C   -0.000036   0.000001
    22  C   -0.000165  -0.000032
    23  C   -0.000035  -0.000161
    24  C    0.000001  -0.000062
    25  C    0.000000   0.000000
    26  C    0.000000   0.000000
    27  C    0.000000   0.000000
    28  C    0.000000   0.000000
    29  C    0.000034   0.000000
    30  C    0.001602  -0.000018
    31  C    0.002099   0.002315
    32  C    0.002581   0.001219
    33  C   -0.000127   0.003509
    34  C    0.000000   0.000084
    35  C    0.000000  -0.000001
    36  C    0.000000   0.000000
    37  C    0.000000   0.000000
    38  C    0.004557  -0.000046
    39  C   -0.121076   0.003351
    40  C    0.388142  -0.082236
    41  C   -0.101257   0.293100
    42  C    0.002246  -0.039637
    43  C    0.000007  -0.001654
    44  C    0.000000   0.000006
    45  C    0.000000   0.000000
    46  C    0.000000   0.000000
    47  C   -0.002765  -0.000027
    48  C    0.358595  -0.002899
    49  C    5.184484   0.333520
    50  C    0.333520   5.520721
 Mulliken charges:
               1
     1  C   -0.000417
     2  C   -0.091888
     3  C    0.067429
     4  C   -0.017739
     5  C    0.010851
     6  C    0.071152
     7  C   -0.076234
     8  C    0.065973
     9  C   -0.179483
    10  C    0.075601
    11  C   -0.057986
    12  C    0.038125
    13  C   -0.024691
    14  C    0.034058
    15  C   -0.065730
    16  C   -0.010202
    17  C    0.021594
    18  C   -0.025952
    19  C    0.018199
    20  C   -0.005354
    21  C   -0.006328
    22  C   -0.032001
    23  C    0.027949
    24  C    0.032153
    25  C    0.036260
    26  C    0.115922
    27  C   -0.099366
    28  C   -0.063503
    29  C   -0.013551
    30  C    0.163810
    31  C    0.039561
    32  C    0.040615
    33  C    0.069609
    34  C    0.026970
    35  C    0.094084
    36  C   -0.083347
    37  C   -0.011712
    38  C   -0.023333
    39  C    0.014174
    40  C   -0.013677
    41  C   -0.094693
    42  C    0.001856
    43  C    0.029340
    44  C   -0.019109
    45  C   -0.003347
    46  C   -0.009278
    47  C    0.015260
    48  C    0.001786
    49  C   -0.052355
    50  C   -0.031054
 Sum of Mulliken charges =   0.00000
 Mulliken charges with hydrogens summed into heavy atoms:
               1
     1  C   -0.000417
     2  C   -0.091888
     3  C    0.067429
     4  C   -0.017739
     5  C    0.010851
     6  C    0.071152
     7  C   -0.076234
     8  C    0.065973
     9  C   -0.179483
    10  C    0.075601
    11  C   -0.057986
    12  C    0.038125
    13  C   -0.024691
    14  C    0.034058
    15  C   -0.065730
    16  C   -0.010202
    17  C    0.021594
    18  C   -0.025952
    19  C    0.018199
    20  C   -0.005354
    21  C   -0.006328
    22  C   -0.032001
    23  C    0.027949
    24  C    0.032153
    25  C    0.036260
    26  C    0.115922
    27  C   -0.099366
    28  C   -0.063503
    29  C   -0.013551
    30  C    0.163810
    31  C    0.039561
    32  C    0.040615
    33  C    0.069609
    34  C    0.026970
    35  C    0.094084
    36  C   -0.083347
    37  C   -0.011712
    38  C   -0.023333
    39  C    0.014174
    40  C   -0.013677
    41  C   -0.094693
    42  C    0.001856
    43  C    0.029340
    44  C   -0.019109
    45  C   -0.003347
    46  C   -0.009278
    47  C    0.015260
    48  C    0.001786
    49  C   -0.052355
    50  C   -0.031054
 Top of OneElI        Mon Dec 15 22:08:59 2014        0.02 cpu,        0.02 elapsed
 ShPair: Thresh= 1.00D-13 NBox=     1 BxSize= 3.09D+01 RnKept= 1.72D+01
         NSMCal=                 5050 NSMKep=                2630
 After ShPair         Mon Dec 15 22:08:59 2014        0.02 cpu,        0.02 elapsed
 PrsmSu:  NPrtUS=   1 ThrOK=F IAlg=1 NPAlg=1 LenDen=           0.
 Top of Prism.        Mon Dec 15 22:08:59 2014        0.00 cpu,        0.00 elapsed
 Prism:   IPart=     0 DynPar=F LinDyn=F Incr=          26.
 End of Prism.        Mon Dec 15 22:08:59 2014        0.01 cpu,        0.01 elapsed
 PrSmSu:  NxtVal=             27.
 Bot of OneElI        Mon Dec 15 22:08:59 2014        0.00 cpu,        0.00 elapsed
 Electronic spatial extent (au):  <R**2>=          80034.3115
 Charge=              0.0000 electrons
 Dipole moment (field-independent basis, Debye):
    X=             -3.6420    Y=             -3.8273    Z=              0.0000  Tot=              5.2832
 Quadrupole moment (field-independent basis, Debye-Ang):
   XX=           -347.9324   YY=           -391.2405   ZZ=           -242.5533
   XY=            -30.2497   XZ=              0.0000   YZ=              0.0000
 Traceless Quadrupole moment (field-independent basis, Debye-Ang):
   XX=            -20.6903   YY=            -63.9985   ZZ=             84.6888
   XY=            -30.2497   XZ=              0.0000   YZ=              0.0000
 Octapole moment (field-independent basis, Debye-Ang**2):
  XXX=          -3984.9071  YYY=          -6930.6238  ZZZ=              0.0000  XYY=          -1312.1789
  XXY=          -1762.8034  XXZ=              0.0000  XZZ=           -847.9048  YZZ=          -1371.7003
  YYZ=              0.0000  XYZ=              0.0000
 Hexadecapole moment (field-independent basis, Debye-Ang**3):
 XXXX=         -51947.2478 YYYY=        -123933.7009 ZZZZ=           -195.5402 XXXY=         -12819.9754
 XXXZ=              0.0000 YYYX=         -17450.6692 YYYZ=              0.0000 ZZZX=              0.0000
 ZZZY=              0.0000 XXYY=         -22875.9974 XXZZ=          -5404.0328 YYZZ=         -12742.4351
 XXYZ=              0.0000 YYXZ=              0.0000 ZZXY=          -3351.5293
 N-N= 5.011975151310D+03 E-N=-1.439158170785D+04  KE= 1.866680584131D+03
 Top of OneElI        Mon Dec 15 22:08:59 2014        0.00 cpu,        0.00 elapsed
 ShPair: Thresh= 1.00D-13 NBox=     1 BxSize= 2.58D+01 RnKept= 1.72D+01
         NSMCal=                 5050 NSMKep=                2283
 After ShPair         Mon Dec 15 22:08:59 2014        0.01 cpu,        0.01 elapsed
 PrsmSu:  NPrtUS=   1 ThrOK=F IAlg=1 NPAlg=1 LenDen=           0.
 Top of Prism.        Mon Dec 15 22:08:59 2014        0.00 cpu,        0.00 elapsed
 Prism:   IPart=     0 DynPar=F LinDyn=F Incr=         512.
 End of Prism.        Mon Dec 15 22:08:59 2014        0.13 cpu,        0.13 elapsed
 PrSmSu:  NxtVal=            513.
 Bot of OneElI        Mon Dec 15 22:08:59 2014        0.00 cpu,        0.00 elapsed
 No NMR shielding tensors so no spin-rotation constants.
 Leave Link  601 at Mon Dec 15 22:08:59 2014, MaxMem=  1073741824 cpu:               0.2 elap:               0.2
 (Enter /home1/gaussian/gdv/H36/gdv/l9999.exe)
 Top of link 9999.    Mon Dec 15 22:08:59 2014        0.00 cpu,        0.00 elapsed
 Unable to Open any file for archive entry.
 1\1\GINC-GPU-COMPUTE-1-33\SP\RHF\STO-3G\C50\GAUSSIAN\15-Dec-2014\0\\#p
  hf/sto-3g nosymm iop1=timestamp guess=read scf=(incore,novaracc) inte
 gral=acc2e=10\\d\\0,1\C,0,0.,0.,0.\C,0,1.5,0.,0.\C,0,3.,0.,0.\C,0,4.5,
 0.,0.\C,0,6.,0.,0.\C,0,7.5,0.,0.\C,0,9.,0.,0.\C,0,10.5,0.,0.\C,0,12.,0
 .,0.\C,0,13.5,0.,0.\C,0,0.,1.5,0.\C,0,0.,3.,0.\C,0,0.,4.5,0.\C,0,0.,6.
 ,0.\C,0,0.,7.5,0.\C,0,0.,9.,0.\C,0,0.,10.5,0.\C,0,0.,12.,0.\C,0,0.,13.
 5,0.\C,0,1.5,1.5,0.\C,0,1.5,3.,0.\C,0,1.5,4.5,0.\C,0,1.5,6.,0.\C,0,1.5
 ,7.5,0.\C,0,1.5,9.,0.\C,0,1.5,10.5,0.\C,0,1.5,12.,0.\C,0,1.5,13.5,0.\C
 ,0,3.,1.5,0.\C,0,3.,3.,0.\C,0,3.,4.5,0.\C,0,3.,6.,0.\C,0,3.,7.5,0.\C,0
 ,3.,9.,0.\C,0,3.,10.5,0.\C,0,3.,12.,0.\C,0,3.,13.5,0.\C,0,4.5,1.5,0.\C
 ,0,4.5,3.,0.\C,0,4.5,4.5,0.\C,0,4.5,6.,0.\C,0,4.5,7.5,0.\C,0,4.5,9.,0.
 \C,0,4.5,10.5,0.\C,0,4.5,12.,0.\C,0,4.5,13.5,0.\C,0,6.,1.5,0.\C,0,6.,3
 .,0.\C,0,6.,4.5,0.\C,0,6.,6.,0.\\Version=ES64L-GDVRevH.36\HF=-1863.816
 9175\RMSD=1.471e-09\Dipole=-1.4328666,-1.5057952,0.\Quadrupole=-15.382
 7399,-47.5812986,62.9640385,-22.4899025,0.,0.\PG=CS [SG(C50)]\\@
 The archive entry for this job was punched.


 WHEN IT COMES TO CASH FLOW, IT SEEMS LIKE THE TIDE IS ALWAYS GOING OUT.
 Job cpu time:       0 days  0 hours  0 minutes 14.7 seconds.
 Elapsed time:       0 days  0 hours  0 minutes 14.6 seconds.
 File lengths (MBytes):  RWF=     28 Int=      0 D2E=      0 Chk=      4 Scr=      1
 Normal termination of Gaussian DV at Mon Dec 15 22:09:00 2014.
