 Entering Gaussian System, Link 0=gdv
 Input=2.com
 Output=2.log
 Initial command:
 /home1/gaussian/gdv/H36/gdv/l1.exe "/state/partition1/Gau-1899.inp" -scrdir="/state/partition1/"
 Entering Link 1 = /home1/gaussian/gdv/H36/gdv/l1.exe PID=      1900.
  
 Copyright (c) 1988,1990,1992,1993,1995,1998,2003,2009,2014,
            Gaussian, Inc.  All Rights Reserved.
  
 This is the private, development version of
 the Gaussian(R) DV system of programs. It is based on
 the Gaussian(R) 09 system (copyright 2009, Gaussian, Inc.),
 the Gaussian(R) 03 system (copyright 2003, Gaussian, Inc.),
 the Gaussian(R) 98 system (copyright 1998, Gaussian, Inc.),
 the Gaussian(R) 94 system (copyright 1995, Gaussian, Inc.),
 the Gaussian 92(TM) system (copyright 1992, Gaussian, Inc.),
 the Gaussian 90(TM) system (copyright 1990, Gaussian, Inc.),
 the Gaussian 88(TM) system (copyright 1988, Gaussian, Inc.),
 the Gaussian 86(TM) system (copyright 1986, Carnegie Mellon
 University), and the Gaussian 82(TM) system (copyright 1983,
 Carnegie Mellon University). Gaussian is a federally registered
 trademark of Gaussian, Inc.
  
 This software contains proprietary and confidential information,
 including trade secrets, belonging to Gaussian, Inc.
  
 This software is provided under written license and may be
 used, copied, transmitted, or stored only in accord with that
 written license.
  
 The following legend is applicable only to US Government
 contracts under FAR:
  
                    RESTRICTED RIGHTS LEGEND
  
 Use, reproduction and disclosure by the US Government is
 subject to restrictions as set forth in subparagraphs (a)
 and (c) of the Commercial Computer Software - Restricted
 Rights clause in FAR 52.227-19.
  
 Gaussian, Inc.
 340 Quinnipiac St., Bldg. 40, Wallingford CT 06492
  
  
 ---------------------------------------------------------------
 Warning -- This program may not be used in any manner that
 competes with the business of Gaussian, Inc. or will provide
 assistance to any competitor of Gaussian, Inc.  The licensee
 of this program is prohibited from giving any competitor of
 Gaussian, Inc. access to this program.  By using this program,
 the user acknowledges that Gaussian, Inc. is engaged in the
 business of creating and licensing software in the field of
 computational chemistry and represents and warrants to the
 licensee that it is not a competitor of Gaussian, Inc. and that
 it will not use this program in any manner prohibited above.
 ---------------------------------------------------------------
  

 Cite this work as:
 Gaussian Development Version, Revision H.36,
 M. J. Frisch, G. W. Trucks, H. B. Schlegel, G. E. Scuseria, 
 M. A. Robb, J. R. Cheeseman, G. Scalmani, V. Barone, B. Mennucci, 
 G. A. Petersson, H. Nakatsuji, M. Caricato, X. Li, H. P. Hratchian, 
 A. F. Izmaylov, J. Bloino, B. G. Janesko, F. Lipparini, G. Zheng, 
 J. L. Sonnenberg, W. Liang, M. Hada, M. Ehara, K. Toyota, R. Fukuda, 
 J. Hasegawa, M. Ishida, T. Nakajima, Y. Honda, O. Kitao, H. Nakai, 
 T. Vreven, J. A. Montgomery, Jr., J. E. Peralta, F. Ogliaro, 
 M. Bearpark, J. J. Heyd, E. Brothers, K. N. Kudin, V. N. Staroverov, 
 T. Keith, R. Kobayashi, J. Normand, K. Raghavachari, A. Rendell, 
 J. C. Burant, S. S. Iyengar, J. Tomasi, M. Cossi, N. Rega, 
 J. M. Millam, M. Klene, J. E. Knox, J. B. Cross, V. Bakken, 
 C. Adamo, J. Jaramillo, R. Gomperts, R. E. Stratmann, O. Yazyev, 
 A. J. Austin, R. Cammi, C. Pomelli, J. W. Ochterski, R. L. Martin, 
 K. Morokuma, V. G. Zakrzewski, G. A. Voth, P. Salvador, 
 J. J. Dannenberg, S. Dapprich, P. V. Parandekar, N. J. Mayhall, 
 A. D. Daniels, O. Farkas, J. B. Foresman, J. V. Ortiz, 
 J. Cioslowski, and D. J. Fox, Gaussian, Inc., Wallingford CT, 2010.
 
 ******************************************
 Gaussian DV:  ES64L-GDVRevH.36  7-Apr-2014
                21-Jan-2015 
 ******************************************
 %mem=16GB
 %chk=2.chk
 ----------------------------------------------------------------------
 #p hf/sto-3g nosymm iop1=timestamp scf=(incore,novaracc) integral=acc2
 e=10 guess=read
 ----------------------------------------------------------------------
 1/38=1,172=1/1;
 2/12=2,15=1,17=6,18=5,40=1/2;
 3/6=3,11=9,16=1,25=1,27=10,30=1,116=-2/1,2,3;
 4/5=1/1;
 5/5=3,38=6,87=10/2;
 6/7=2,8=2,9=2,10=2,28=1/1;
 99/5=1,9=1/99;
 Leave Link    1 at Wed Jan 21 17:15:30 2015, MaxMem=  2147483648 cpu:               0.1 elap:               0.1
 (Enter /home1/gaussian/gdv/H36/gdv/l101.exe)
 Top of link  101.    Wed Jan 21 17:15:30 2015        0.00 cpu,        0.00 elapsed
 -
 d
 -
 Symbolic Z-matrix:
 Charge =  0 Multiplicity = 1
 C                    0     0.        0.        0. 
 C                    0     1.5       0.        0. 
 C                    0     3.        0.        0. 
 C                    0     4.5       0.        0. 
 C                    0     6.        0.        0. 
 C                    0     7.5       0.        0. 
 C                    0     9.        0.        0. 
 C                    0     10.5      0.        0. 
 C                    0     12.       0.        0. 
 C                    0     13.5      0.        0. 
 C                    0     0.        1.5       0. 
 C                    0     0.        3.        0. 
 C                    0     0.        4.5       0. 
 C                    0     0.        6.        0. 
 C                    0     0.        7.5       0. 
 C                    0     0.        9.        0. 
 C                    0     0.        10.5      0. 
 C                    0     0.        12.       0. 
 C                    0     0.        13.5      0. 
 C                    0     1.5       1.5       0. 
 C                    0     1.5       3.        0. 
 C                    0     1.5       4.5       0. 
 C                    0     1.5       6.        0. 
 C                    0     1.5       7.5       0. 
 C                    0     1.5       9.        0. 
 C                    0     1.5       10.5      0. 
 C                    0     1.5       12.       0. 
 C                    0     1.5       13.5      0. 
 C                    0     3.        1.5       0. 
 C                    0     3.        3.        0. 
 C                    0     3.        4.5       0. 
 C                    0     3.        6.        0. 
 C                    0     3.        7.5       0. 
 C                    0     3.        9.        0. 
 C                    0     3.        10.5      0. 
 C                    0     3.        12.       0. 
 C                    0     3.        13.5      0. 
 C                    0     4.5       1.5       0. 
 C                    0     4.5       3.        0. 
 C                    0     4.5       4.5       0. 
 C                    0     4.5       6.        0. 
 C                    0     4.5       7.5       0. 
 C                    0     4.5       9.        0. 
 C                    0     4.5       10.5      0. 
 C                    0     4.5       12.       0. 
 C                    0     4.5       13.5      0. 
 C                    0     6.        1.5       0. 
 C                    0     6.        3.        0. 
 C                    0     6.        4.5       0. 
 C                    0     6.        6.        0. 
 C                    0     6.        7.5       0. 
 C                    0     6.        9.        0. 
 C                    0     6.        10.5      0. 
 C                    0     6.        12.       0. 
 C                    0     6.        13.5      0. 
 C                    0     7.5       1.5       0. 
 C                    0     7.5       3.        0. 
 C                    0     7.5       4.5       0. 
 C                    0     7.5       6.        0. 
 C                    0     7.5       7.5       0. 
 C                    0     7.5       9.        0. 
 C                    0     7.5       10.5      0. 
 C                    0     7.5       12.       0. 
 C                    0     7.5       13.5      0. 
 C                    0     9.        1.5       0. 
 C                    0     9.        3.        0. 
 C                    0     9.        4.5       0. 
 C                    0     9.        6.        0. 
 C                    0     9.        7.5       0. 
 C                    0     9.        9.        0. 
 
 Top GenCBx           Wed Jan 21 17:15:31 2015        0.19 cpu,        0.19 elapsed
 Bot GenCBx           Wed Jan 21 17:15:31 2015        0.00 cpu,        0.00 elapsed
 ITRead=  0  0  0  0  0  0  0  0  0  0  0  0  0  0  0  0  0  0  0  0
 ITRead=  0  0  0  0  0  0  0  0  0  0  0  0  0  0  0  0  0  0  0  0
 ITRead=  0  0  0  0  0  0  0  0  0  0  0  0  0  0  0  0  0  0  0  0
 ITRead=  0  0  0  0  0  0  0  0  0  0
 MicOpt= -1 -1 -1 -1 -1 -1 -1 -1 -1 -1 -1 -1 -1 -1 -1 -1 -1 -1 -1 -1
 MicOpt= -1 -1 -1 -1 -1 -1 -1 -1 -1 -1 -1 -1 -1 -1 -1 -1 -1 -1 -1 -1
 MicOpt= -1 -1 -1 -1 -1 -1 -1 -1 -1 -1 -1 -1 -1 -1 -1 -1 -1 -1 -1 -1
 MicOpt= -1 -1 -1 -1 -1 -1 -1 -1 -1 -1
 Aft Large/GenITR2    Wed Jan 21 17:15:31 2015        0.00 cpu,        0.00 elapsed
 NAtoms=     70 NQM=       70 NQMF=       0 NMMI=      0 NMMIF=      0
                NMic=       0 NMicF=      0.
                    Isotopes and Nuclear Properties:
 (Nuclear quadrupole moments (NQMom) in fm**2, nuclear magnetic moments (NMagM)
  in nuclear magnetons)

  Atom         1           2           3           4           5           6           7           8           9          10
 IAtWgt=          12          12          12          12          12          12          12          12          12          12
 AtmWgt=  12.0000000  12.0000000  12.0000000  12.0000000  12.0000000  12.0000000  12.0000000  12.0000000  12.0000000  12.0000000
 NucSpn=           0           0           0           0           0           0           0           0           0           0
 AtZEff=   0.0000000   0.0000000   0.0000000   0.0000000   0.0000000   0.0000000   0.0000000   0.0000000   0.0000000   0.0000000
 NQMom=    0.0000000   0.0000000   0.0000000   0.0000000   0.0000000   0.0000000   0.0000000   0.0000000   0.0000000   0.0000000
 NMagM=    0.0000000   0.0000000   0.0000000   0.0000000   0.0000000   0.0000000   0.0000000   0.0000000   0.0000000   0.0000000
 AtZNuc=   6.0000000   6.0000000   6.0000000   6.0000000   6.0000000   6.0000000   6.0000000   6.0000000   6.0000000   6.0000000

  Atom        11          12          13          14          15          16          17          18          19          20
 IAtWgt=          12          12          12          12          12          12          12          12          12          12
 AtmWgt=  12.0000000  12.0000000  12.0000000  12.0000000  12.0000000  12.0000000  12.0000000  12.0000000  12.0000000  12.0000000
 NucSpn=           0           0           0           0           0           0           0           0           0           0
 AtZEff=   0.0000000   0.0000000   0.0000000   0.0000000   0.0000000   0.0000000   0.0000000   0.0000000   0.0000000   0.0000000
 NQMom=    0.0000000   0.0000000   0.0000000   0.0000000   0.0000000   0.0000000   0.0000000   0.0000000   0.0000000   0.0000000
 NMagM=    0.0000000   0.0000000   0.0000000   0.0000000   0.0000000   0.0000000   0.0000000   0.0000000   0.0000000   0.0000000
 AtZNuc=   6.0000000   6.0000000   6.0000000   6.0000000   6.0000000   6.0000000   6.0000000   6.0000000   6.0000000   6.0000000

  Atom        21          22          23          24          25          26          27          28          29          30
 IAtWgt=          12          12          12          12          12          12          12          12          12          12
 AtmWgt=  12.0000000  12.0000000  12.0000000  12.0000000  12.0000000  12.0000000  12.0000000  12.0000000  12.0000000  12.0000000
 NucSpn=           0           0           0           0           0           0           0           0           0           0
 AtZEff=   0.0000000   0.0000000   0.0000000   0.0000000   0.0000000   0.0000000   0.0000000   0.0000000   0.0000000   0.0000000
 NQMom=    0.0000000   0.0000000   0.0000000   0.0000000   0.0000000   0.0000000   0.0000000   0.0000000   0.0000000   0.0000000
 NMagM=    0.0000000   0.0000000   0.0000000   0.0000000   0.0000000   0.0000000   0.0000000   0.0000000   0.0000000   0.0000000
 AtZNuc=   6.0000000   6.0000000   6.0000000   6.0000000   6.0000000   6.0000000   6.0000000   6.0000000   6.0000000   6.0000000

  Atom        31          32          33          34          35          36          37          38          39          40
 IAtWgt=          12          12          12          12          12          12          12          12          12          12
 AtmWgt=  12.0000000  12.0000000  12.0000000  12.0000000  12.0000000  12.0000000  12.0000000  12.0000000  12.0000000  12.0000000
 NucSpn=           0           0           0           0           0           0           0           0           0           0
 AtZEff=   0.0000000   0.0000000   0.0000000   0.0000000   0.0000000   0.0000000   0.0000000   0.0000000   0.0000000   0.0000000
 NQMom=    0.0000000   0.0000000   0.0000000   0.0000000   0.0000000   0.0000000   0.0000000   0.0000000   0.0000000   0.0000000
 NMagM=    0.0000000   0.0000000   0.0000000   0.0000000   0.0000000   0.0000000   0.0000000   0.0000000   0.0000000   0.0000000
 AtZNuc=   6.0000000   6.0000000   6.0000000   6.0000000   6.0000000   6.0000000   6.0000000   6.0000000   6.0000000   6.0000000

  Atom        41          42          43          44          45          46          47          48          49          50
 IAtWgt=          12          12          12          12          12          12          12          12          12          12
 AtmWgt=  12.0000000  12.0000000  12.0000000  12.0000000  12.0000000  12.0000000  12.0000000  12.0000000  12.0000000  12.0000000
 NucSpn=           0           0           0           0           0           0           0           0           0           0
 AtZEff=   0.0000000   0.0000000   0.0000000   0.0000000   0.0000000   0.0000000   0.0000000   0.0000000   0.0000000   0.0000000
 NQMom=    0.0000000   0.0000000   0.0000000   0.0000000   0.0000000   0.0000000   0.0000000   0.0000000   0.0000000   0.0000000
 NMagM=    0.0000000   0.0000000   0.0000000   0.0000000   0.0000000   0.0000000   0.0000000   0.0000000   0.0000000   0.0000000
 AtZNuc=   6.0000000   6.0000000   6.0000000   6.0000000   6.0000000   6.0000000   6.0000000   6.0000000   6.0000000   6.0000000

  Atom        51          52          53          54          55          56          57          58          59          60
 IAtWgt=          12          12          12          12          12          12          12          12          12          12
 AtmWgt=  12.0000000  12.0000000  12.0000000  12.0000000  12.0000000  12.0000000  12.0000000  12.0000000  12.0000000  12.0000000
 NucSpn=           0           0           0           0           0           0           0           0           0           0
 AtZEff=   0.0000000   0.0000000   0.0000000   0.0000000   0.0000000   0.0000000   0.0000000   0.0000000   0.0000000   0.0000000
 NQMom=    0.0000000   0.0000000   0.0000000   0.0000000   0.0000000   0.0000000   0.0000000   0.0000000   0.0000000   0.0000000
 NMagM=    0.0000000   0.0000000   0.0000000   0.0000000   0.0000000   0.0000000   0.0000000   0.0000000   0.0000000   0.0000000
 AtZNuc=   6.0000000   6.0000000   6.0000000   6.0000000   6.0000000   6.0000000   6.0000000   6.0000000   6.0000000   6.0000000

  Atom        61          62          63          64          65          66          67          68          69          70
 IAtWgt=          12          12          12          12          12          12          12          12          12          12
 AtmWgt=  12.0000000  12.0000000  12.0000000  12.0000000  12.0000000  12.0000000  12.0000000  12.0000000  12.0000000  12.0000000
 NucSpn=           0           0           0           0           0           0           0           0           0           0
 AtZEff=   0.0000000   0.0000000   0.0000000   0.0000000   0.0000000   0.0000000   0.0000000   0.0000000   0.0000000   0.0000000
 NQMom=    0.0000000   0.0000000   0.0000000   0.0000000   0.0000000   0.0000000   0.0000000   0.0000000   0.0000000   0.0000000
 NMagM=    0.0000000   0.0000000   0.0000000   0.0000000   0.0000000   0.0000000   0.0000000   0.0000000   0.0000000   0.0000000
 AtZNuc=   6.0000000   6.0000000   6.0000000   6.0000000   6.0000000   6.0000000   6.0000000   6.0000000   6.0000000   6.0000000
 Leave Link  101 at Wed Jan 21 17:15:31 2015, MaxMem=  2147483648 cpu:               0.2 elap:               0.2
 (Enter /home1/gaussian/gdv/H36/gdv/l202.exe)
 Top of link  202.    Wed Jan 21 17:15:31 2015        0.00 cpu,        0.00 elapsed
 Symmetry turned off by external request.
 Stoichiometry    C70
 Framework group  CS[SG(C70)]
 Deg. of freedom   137
 Full point group                 CS      NOp   2
                          Input orientation:                          
 ---------------------------------------------------------------------
 Center     Atomic      Atomic             Coordinates (Angstroms)
 Number     Number       Type             X           Y           Z
 ---------------------------------------------------------------------
      1          6           0        0.000000    0.000000    0.000000
      2          6           0        1.500000    0.000000    0.000000
      3          6           0        3.000000    0.000000    0.000000
      4          6           0        4.500000    0.000000    0.000000
      5          6           0        6.000000    0.000000    0.000000
      6          6           0        7.500000    0.000000    0.000000
      7          6           0        9.000000    0.000000    0.000000
      8          6           0       10.500000    0.000000    0.000000
      9          6           0       12.000000    0.000000    0.000000
     10          6           0       13.500000    0.000000    0.000000
     11          6           0        0.000000    1.500000    0.000000
     12          6           0        0.000000    3.000000    0.000000
     13          6           0        0.000000    4.500000    0.000000
     14          6           0        0.000000    6.000000    0.000000
     15          6           0        0.000000    7.500000    0.000000
     16          6           0        0.000000    9.000000    0.000000
     17          6           0        0.000000   10.500000    0.000000
     18          6           0        0.000000   12.000000    0.000000
     19          6           0        0.000000   13.500000    0.000000
     20          6           0        1.500000    1.500000    0.000000
     21          6           0        1.500000    3.000000    0.000000
     22          6           0        1.500000    4.500000    0.000000
     23          6           0        1.500000    6.000000    0.000000
     24          6           0        1.500000    7.500000    0.000000
     25          6           0        1.500000    9.000000    0.000000
     26          6           0        1.500000   10.500000    0.000000
     27          6           0        1.500000   12.000000    0.000000
     28          6           0        1.500000   13.500000    0.000000
     29          6           0        3.000000    1.500000    0.000000
     30          6           0        3.000000    3.000000    0.000000
     31          6           0        3.000000    4.500000    0.000000
     32          6           0        3.000000    6.000000    0.000000
     33          6           0        3.000000    7.500000    0.000000
     34          6           0        3.000000    9.000000    0.000000
     35          6           0        3.000000   10.500000    0.000000
     36          6           0        3.000000   12.000000    0.000000
     37          6           0        3.000000   13.500000    0.000000
     38          6           0        4.500000    1.500000    0.000000
     39          6           0        4.500000    3.000000    0.000000
     40          6           0        4.500000    4.500000    0.000000
     41          6           0        4.500000    6.000000    0.000000
     42          6           0        4.500000    7.500000    0.000000
     43          6           0        4.500000    9.000000    0.000000
     44          6           0        4.500000   10.500000    0.000000
     45          6           0        4.500000   12.000000    0.000000
     46          6           0        4.500000   13.500000    0.000000
     47          6           0        6.000000    1.500000    0.000000
     48          6           0        6.000000    3.000000    0.000000
     49          6           0        6.000000    4.500000    0.000000
     50          6           0        6.000000    6.000000    0.000000
     51          6           0        6.000000    7.500000    0.000000
     52          6           0        6.000000    9.000000    0.000000
     53          6           0        6.000000   10.500000    0.000000
     54          6           0        6.000000   12.000000    0.000000
     55          6           0        6.000000   13.500000    0.000000
     56          6           0        7.500000    1.500000    0.000000
     57          6           0        7.500000    3.000000    0.000000
     58          6           0        7.500000    4.500000    0.000000
     59          6           0        7.500000    6.000000    0.000000
     60          6           0        7.500000    7.500000    0.000000
     61          6           0        7.500000    9.000000    0.000000
     62          6           0        7.500000   10.500000    0.000000
     63          6           0        7.500000   12.000000    0.000000
     64          6           0        7.500000   13.500000    0.000000
     65          6           0        9.000000    1.500000    0.000000
     66          6           0        9.000000    3.000000    0.000000
     67          6           0        9.000000    4.500000    0.000000
     68          6           0        9.000000    6.000000    0.000000
     69          6           0        9.000000    7.500000    0.000000
     70          6           0        9.000000    9.000000    0.000000
 ---------------------------------------------------------------------
 Rotational constants (GHZ):      0.0629177      0.0300319      0.0203286
 Leave Link  202 at Wed Jan 21 17:15:31 2015, MaxMem=  2147483648 cpu:               0.0 elap:               0.0
 (Enter /home1/gaussian/gdv/H36/gdv/l301.exe)
 Top of link  301.    Wed Jan 21 17:15:31 2015        0.00 cpu,        0.00 elapsed
 Standard basis: STO-3G (5D, 7F)
 Ernie: Thresh=  0.10000D-02 Tol=  0.10000D-05 Strict=F.
   350 basis functions,  1050 primitive gaussians,   350 cartesian basis functions
   210 alpha electrons      210 beta electrons
       nuclear repulsion energy      9188.8463470981 Hartrees.
 IExCor=    0 DFT=F Ex=HF Corr=None ExCW=0 ScaHFX=  1.000000
 ScaDFX=  1.000000  1.000000  1.000000  1.000000 ScalE2=  1.000000  1.000000
 IRadAn=      0 IRanWt=     -1 IRanGd=            0 ICorTp=0 IEmpDi=  4
 NAtoms=   70 NActive=   70 NUniq=   70 SFac= 1.00D+00 NAtFMM=   60 NAOKFM=T Big=T
 Integral buffers will be    131072 words long.
 Raffenetti 1 integral format.
 Two-electron integral symmetry is turned off.
 Leave Link  301 at Wed Jan 21 17:15:31 2015, MaxMem=  2147483648 cpu:               0.1 elap:               0.1
 (Enter /home1/gaussian/gdv/H36/gdv/l302.exe)
 Top of link  302.    Wed Jan 21 17:15:31 2015        0.00 cpu,        0.00 elapsed
 NPDir=0 NMtPBC=     1 NCelOv=     1 NCel=       1 NClECP=     1 NCelD=      1
         NCelK=      1 NCelE2=     1 NClLst=     1 CellRange=     0.0.
 One-electron integrals computed using PRISM.
 One-electron integral symmetry used in STVInt
 Top of OneElI        Wed Jan 21 17:15:31 2015        0.07 cpu,        0.07 elapsed
 ShPair: Thresh= 1.00D-13 NBox=     1 BxSize= 3.09D+01 RnKept= 1.90D+01
         NSMCal=                 9870 NSMKep=                5495
 After ShPair         Wed Jan 21 17:15:31 2015        0.08 cpu,        0.08 elapsed
 PrsmSu:  NPrtUS=   1 ThrOK=F IAlg=1 NPAlg=1 LenDen=           0.
 Top of Prism.        Wed Jan 21 17:15:31 2015        0.00 cpu,        0.00 elapsed
 Prism:   IPart=     0 DynPar=F LinDyn=F Incr=          54.
 End of Prism.        Wed Jan 21 17:15:31 2015        0.01 cpu,        0.02 elapsed
 PrSmSu:  NxtVal=             55.
 Bot of OneElI        Wed Jan 21 17:15:31 2015        0.01 cpu,        0.01 elapsed
 After ST integrals.  Wed Jan 21 17:15:31 2015        0.00 cpu,        0.00 elapsed
 Top of OneElI        Wed Jan 21 17:15:31 2015        0.00 cpu,        0.00 elapsed
 ShPair: Thresh= 1.00D-13 NBox=     1 BxSize= 2.58D+01 RnKept= 1.72D+01
         NSMCal=                 9870 NSMKep=                4661
 After ShPair         Wed Jan 21 17:15:31 2015        0.05 cpu,        0.04 elapsed
 PrsmSu:  NPrtUS=   1 ThrOK=F IAlg=1 NPAlg=1 LenDen=           0.
 Top of Prism.        Wed Jan 21 17:15:31 2015        0.00 cpu,        0.00 elapsed
 Prism:   IPart=     0 DynPar=F LinDyn=F Incr=         512.
 End of Prism.        Wed Jan 21 17:15:31 2015        0.19 cpu,        0.20 elapsed
 PrSmSu:  NxtVal=            513.
 Bot of OneElI        Wed Jan 21 17:15:31 2015        0.01 cpu,        0.00 elapsed
 After V integrals.   Wed Jan 21 17:15:31 2015        0.00 cpu,        0.00 elapsed
 After integral evalu Wed Jan 21 17:15:31 2015        0.00 cpu,        0.00 elapsed
 Top of SVDSVc.       Wed Jan 21 17:15:31 2015        0.01 cpu,        0.00 elapsed
 Bot of SVDSVc.       Wed Jan 21 17:15:31 2015        0.18 cpu,        0.18 elapsed
 NBasis=   350 RedAO= T EigKep=  1.68D-01  NBF=   350
 NBsUse=   350 1.00D-06 EigRej= -1.00D+00 NBFU=   350
 Leave Link  302 at Wed Jan 21 17:15:31 2015, MaxMem=  2147483648 cpu:               0.6 elap:               0.6
 (Enter /home1/gaussian/gdv/H36/gdv/l303.exe)
 Top of link  303.    Wed Jan 21 17:15:31 2015        0.00 cpu,        0.00 elapsed
 DipDrv:  MaxL=1.
 Top of OneElI        Wed Jan 21 17:15:31 2015        0.02 cpu,        0.03 elapsed
 ShPair: Thresh= 1.00D-13 NBox=     1 BxSize= 3.09D+01 RnKept= 1.72D+01
         NSMCal=                 9870 NSMKep=                4873
 After ShPair         Wed Jan 21 17:15:31 2015        0.06 cpu,        0.06 elapsed
 PrsmSu:  NPrtUS=   1 ThrOK=F IAlg=1 NPAlg=1 LenDen=           0.
 Top of Prism.        Wed Jan 21 17:15:31 2015        0.00 cpu,        0.00 elapsed
 Prism:   IPart=     0 DynPar=F LinDyn=F Incr=          48.
 End of Prism.        Wed Jan 21 17:15:31 2015        0.01 cpu,        0.01 elapsed
 PrSmSu:  NxtVal=             49.
 Bot of OneElI        Wed Jan 21 17:15:31 2015        0.00 cpu,        0.00 elapsed
 Leave Link  303 at Wed Jan 21 17:15:31 2015, MaxMem=  2147483648 cpu:               0.1 elap:               0.1
 (Enter /home1/gaussian/gdv/H36/gdv/l401.exe)
 Top of link  401.    Wed Jan 21 17:15:31 2015        0.00 cpu,        0.00 elapsed
 Initial guess from the checkpoint file:  "2.chk"
 After setup.         Wed Jan 21 17:15:32 2015        0.05 cpu,        0.05 elapsed
 Skipping rotation of guess because NAtoms(RWF)=   70 differs from NAtoms(Chk)=   20.
 Top of RdGes         Wed Jan 21 17:15:32 2015        0.02 cpu,        0.03 elapsed
 Guess basis will be translated and rotated to current coordinates.
 Top of OneElI        Wed Jan 21 17:15:32 2015        0.04 cpu,        0.02 elapsed
 ShPair: Thresh= 1.00D-13 NBox=     1 BxSize= 3.09D+01 RnKept= 1.72D+01
         NSMCal=                 5600 NSMKep=                2135
 After ShPair         Wed Jan 21 17:15:32 2015        0.03 cpu,        0.04 elapsed
 PrsmSu:  NPrtUS=   1 ThrOK=F IAlg=1 NPAlg=1 LenDen=           0.
 Top of Prism.        Wed Jan 21 17:15:32 2015        0.00 cpu,        0.00 elapsed
 Prism:   IPart=     0 DynPar=F LinDyn=F Incr=          21.
 End of Prism.        Wed Jan 21 17:15:32 2015        0.00 cpu,        0.00 elapsed
 PrSmSu:  NxtVal=             22.
 Bot of OneElI        Wed Jan 21 17:15:32 2015        0.01 cpu,        0.00 elapsed
 After FrmPrj         Wed Jan 21 17:15:32 2015        0.00 cpu,        0.01 elapsed
 Top of GetGes        Wed Jan 21 17:15:32 2015        0.00 cpu,        0.00 elapsed
 After RotMO1         Wed Jan 21 17:15:32 2015        0.00 cpu,        0.00 elapsed
 After Projec         Wed Jan 21 17:15:32 2015        0.09 cpu,        0.09 elapsed
 End of RdGes         Wed Jan 21 17:15:32 2015        0.00 cpu,        0.00 elapsed
 Make guess           Wed Jan 21 17:15:32 2015        0.00 cpu,        0.00 elapsed
 Modify guess         Wed Jan 21 17:15:32 2015        0.00 cpu,        0.00 elapsed
 JPrj=2 DoOrth=T DoCkMO=T.
 Before Post          Wed Jan 21 17:15:32 2015        0.00 cpu,        0.00 elapsed
 Top OrthMO           Wed Jan 21 17:15:32 2015        0.00 cpu,        0.00 elapsed
 Bot OrthMO           Wed Jan 21 17:15:32 2015        0.07 cpu,        0.07 elapsed
 After Post1          Wed Jan 21 17:15:32 2015        0.00 cpu,        0.00 elapsed
 Form P               Wed Jan 21 17:15:32 2015        0.01 cpu,        0.01 elapsed
 Aft Post2            Wed Jan 21 17:15:32 2015        0.00 cpu,        0.00 elapsed
 Make files           Wed Jan 21 17:15:32 2015        0.00 cpu,        0.00 elapsed
 MOChek               Wed Jan 21 17:15:32 2015        0.03 cpu,        0.03 elapsed
 Leave Link  401 at Wed Jan 21 17:15:32 2015, MaxMem=  2147483648 cpu:               0.3 elap:               0.4
 (Enter /home1/gaussian/gdv/H36/gdv/l502.exe)
 Top of link  502.    Wed Jan 21 17:15:32 2015        0.00 cpu,        0.00 elapsed
 Keep R1 ints in memory in canonical form, NReq=1908168057.
 FoFCou: FMM=F IPFlag=           0 FMFlag=           0 FMFlg1=           0
         NFxFlg=           0 DoJE=F BraDBF=F KetDBF=F FulRan=T
         wScrn=  0.000000 ICntrl=       600 IOpCl=  0 I1Cent=           0 NGrid=           0
         NMat0=    1 NMatS0=  61425 NMatT0=    0 NMatD0=    1 NMtDS0=    0 NMtDT0=    0
 Symmetry not used in FoFCou.
 ShPair: Thresh= 1.00D-10 NBox=     3 BxSize= 2.32D+01 RnKept= 1.60D+01
         NSMCal=                 9870 NSMKep=                4140
 After ShPair         Wed Jan 21 17:15:41 2015        9.50 cpu,        9.51 elapsed
 After ShPSch         Wed Jan 21 17:15:41 2015        0.05 cpu,        0.04 elapsed
 After FMMEnt         Wed Jan 21 17:15:41 2015        0.00 cpu,        0.00 elapsed
 After BoxK           Wed Jan 21 17:15:41 2015        0.00 cpu,        0.00 elapsed
 CoulSu:  IncDef=  1024 NBBP=        8571870 NTPThr=   100 NPartT=    1 Incr=        1024 LDynOK=F.
 CoulSu:  NPrtUS=   1 ThrOK=F IAlg=1 NPAlg=1 LenDen=           0 LWGrdD=           0 DoCopy=F.
 Top of PrismC.       Wed Jan 21 17:15:41 2015        0.00 cpu,        0.00 elapsed
 PrismC:  IPart=     0 DynPar=F LinDyn=F Incr=        1024 UseFst=F UseS4=T IGathr=1.
 End of PrismC.       Wed Jan 21 17:16:02 2015       20.92 cpu,       20.95 elapsed
 CoulSu:  NxtVal=           1025 LenVP=      260345078 MinMC=      33.
 After CoulSu         Wed Jan 21 17:16:02 2015        0.00 cpu,        0.00 elapsed
 Top of RegRaf.       Wed Jan 21 17:16:05 2015        2.57 cpu,        2.58 elapsed
 End of RegRaf.       Wed Jan 21 17:16:31 2015       25.86 cpu,       25.89 elapsed
 After RegRaf         Wed Jan 21 17:16:31 2015        0.00 cpu,        0.00 elapsed
 Two-electron integral symmetry not used.
 Closed shell SCF:
 Using DIIS extrapolation, IDIIS=  1040.
 NGot=  2147483648 LenX=   260688478 LenY=   260565537
 Requested convergence on RMS density matrix=1.00D-08 within 128 cycles.
 Requested convergence on MAX density matrix=1.00D-06.
 Requested convergence on             energy=1.00D-06.
 No special actions if energy rises.

 Start of iteration.  Wed Jan 21 17:16:31 2015        0.02 cpu,        0.01 elapsed
 Cycle   1  Pass 1  IDiag  1:
 After PChk2N.        Wed Jan 21 17:16:31 2015        0.00 cpu,        0.00 elapsed
 Before 2e terms.     Wed Jan 21 17:16:31 2015        0.00 cpu,        0.00 elapsed
 Top of FoFMem.       Wed Jan 21 17:16:31 2015        0.00 cpu,        0.00 elapsed
 End of FoFMem.       Wed Jan 21 17:16:34 2015        2.90 cpu,        2.91 elapsed
 After 2e             Wed Jan 21 17:16:34 2015        0.00 cpu,        0.00 elapsed
 E= -1323.28605177813    
 DIIS: error= 1.57D+00 at cycle   1 NSaved=   1.
 NSaved= 1 IEnMin= 1 EnMin= -1323.28605177813     IErMin= 1 ErrMin= 1.57D+00
 ErrMax= 1.57D+00  0.00D+00 EMaxC= 1.00D-01 BMatC= 1.09D+03 BMatP= 1.09D+03
 IDIUse=3 WtCom= 0.00D+00 WtEn= 1.00D+00
 Coeff-Com:  0.100D+01
 Coeff-En:   0.100D+01
 Coeff:      0.100D+01
 After DIIS           Wed Jan 21 17:16:34 2015        0.04 cpu,        0.04 elapsed
 Top of DgFock.       Wed Jan 21 17:16:34 2015        0.00 cpu,        0.00 elapsed
 Gap=    -2.614 Goal=   None    Shift=    0.000
 End of DgFock.       Wed Jan 21 17:16:34 2015        0.08 cpu,        0.08 elapsed
 End of iteration.    Wed Jan 21 17:16:34 2015        0.01 cpu,        0.00 elapsed
 GapD=   -2.614 DampG=0.250 DampE=0.250 DampFc=0.2500 IDamp=-1.
 Damping current iteration by 2.50D-01
 RMSDP=1.02D-01 MaxDP=2.77D+00              OVMax= 0.00D+00

 Start of iteration.  Wed Jan 21 17:16:34 2015        0.01 cpu,        0.00 elapsed
 Cycle   2  Pass 1  IDiag  1:
 After PChk2N.        Wed Jan 21 17:16:34 2015        0.00 cpu,        0.00 elapsed
 Before 2e terms.     Wed Jan 21 17:16:34 2015        0.00 cpu,        0.00 elapsed
 Top of FoFMem.       Wed Jan 21 17:16:34 2015        0.00 cpu,        0.00 elapsed
 End of FoFMem.       Wed Jan 21 17:16:37 2015        2.91 cpu,        2.92 elapsed
 After 2e             Wed Jan 21 17:16:37 2015        0.00 cpu,        0.00 elapsed
 E= -1929.86101554505     Delta-E=     -606.574963766925 Rises=F Damp=T
 DIIS: error= 1.11D+00 at cycle   2 NSaved=   2.
 NSaved= 2 IEnMin= 2 EnMin= -1929.86101554505     IErMin= 2 ErrMin= 1.11D+00
 ErrMax= 1.11D+00  0.00D+00 EMaxC= 1.00D-01 BMatC= 4.33D+02 BMatP= 1.09D+03
 IDIUse=3 WtCom= 0.00D+00 WtEn= 1.00D+00
 Coeff-Com: -0.977D+00 0.198D+01
 Coeff-En:   0.000D+00 0.100D+01
 Coeff:      0.000D+00 0.100D+01
 After DIIS           Wed Jan 21 17:16:37 2015        0.04 cpu,        0.04 elapsed
 Top of DgFock.       Wed Jan 21 17:16:37 2015        0.00 cpu,        0.00 elapsed
 Gap=    -7.400 Goal=   None    Shift=    0.000
 End of DgFock.       Wed Jan 21 17:16:37 2015        0.08 cpu,        0.08 elapsed
 End of iteration.    Wed Jan 21 17:16:37 2015        0.00 cpu,        0.00 elapsed
 RMSDP=7.44D-02 MaxDP=2.08D+00 DE=-6.07D+02 OVMax= 0.00D+00

 Start of iteration.  Wed Jan 21 17:16:37 2015        0.00 cpu,        0.00 elapsed
 Cycle   3  Pass 1  IDiag  1:
 After PChk2N.        Wed Jan 21 17:16:37 2015        0.00 cpu,        0.00 elapsed
 Before 2e terms.     Wed Jan 21 17:16:37 2015        0.00 cpu,        0.00 elapsed
 Top of FoFMem.       Wed Jan 21 17:16:37 2015        0.00 cpu,        0.00 elapsed
 End of FoFMem.       Wed Jan 21 17:16:40 2015        2.91 cpu,        2.91 elapsed
 After 2e             Wed Jan 21 17:16:40 2015        0.00 cpu,        0.00 elapsed
 E= -1425.06036157736     Delta-E=      504.800653967697 Rises=F Damp=F
 DIIS: error= 2.21D-01 at cycle   3 NSaved=   3.
 NSaved= 3 IEnMin= 2 EnMin= -1929.86101554505     IErMin= 3 ErrMin= 2.21D-01
 ErrMax= 2.21D-01  0.00D+00 EMaxC= 1.00D-01 BMatC= 9.53D+01 BMatP= 4.33D+02
 IDIUse=3 WtCom= 0.00D+00 WtEn= 1.00D+00
 EnCoef did   100 forward-backward iterations
 Coeff-Com: -0.175D+00 0.440D+00 0.735D+00
 Coeff-En:   0.480D+00 0.523D-02 0.515D+00
 Coeff:      0.480D+00 0.523D-02 0.515D+00
 After DIIS           Wed Jan 21 17:16:40 2015        0.04 cpu,        0.04 elapsed
 Top of DgFock.       Wed Jan 21 17:16:40 2015        0.00 cpu,        0.00 elapsed
 Gap=    -1.418 Goal=   None    Shift=    0.000
 End of DgFock.       Wed Jan 21 17:16:40 2015        0.09 cpu,        0.09 elapsed
 End of iteration.    Wed Jan 21 17:16:40 2015        0.00 cpu,        0.00 elapsed
 RMSDP=1.04D-01 MaxDP=2.85D+00 DE= 5.05D+02 OVMax= 0.00D+00

 Start of iteration.  Wed Jan 21 17:16:40 2015        0.00 cpu,        0.00 elapsed
 Cycle   4  Pass 1  IDiag  1:
 After PChk2N.        Wed Jan 21 17:16:40 2015        0.00 cpu,        0.00 elapsed
 Before 2e terms.     Wed Jan 21 17:16:40 2015        0.00 cpu,        0.00 elapsed
 Top of FoFMem.       Wed Jan 21 17:16:40 2015        0.00 cpu,        0.00 elapsed
 End of FoFMem.       Wed Jan 21 17:16:43 2015        2.91 cpu,        2.92 elapsed
 After 2e             Wed Jan 21 17:16:43 2015        0.00 cpu,        0.00 elapsed
 E= -1523.35378785477     Delta-E=      -98.293426277412 Rises=F Damp=F
 DIIS: error= 2.35D-01 at cycle   4 NSaved=   4.
 NSaved= 4 IEnMin= 2 EnMin= -1929.86101554505     IErMin= 3 ErrMin= 2.21D-01
 ErrMax= 2.35D-01  0.00D+00 EMaxC= 1.00D-01 BMatC= 1.19D+02 BMatP= 9.53D+01
 IDIUse=2 WtCom= 0.00D+00 WtEn= 1.00D+00
 Coeff-En:   0.000D+00 0.000D+00 0.488D+00 0.512D+00
 Coeff:      0.000D+00 0.000D+00 0.488D+00 0.512D+00
 After DIIS           Wed Jan 21 17:16:43 2015        0.04 cpu,        0.04 elapsed
 Top of DgFock.       Wed Jan 21 17:16:43 2015        0.00 cpu,        0.00 elapsed
 Gap=     3.075 Goal=   None    Shift=    0.000
 End of DgFock.       Wed Jan 21 17:16:43 2015        0.08 cpu,        0.08 elapsed
 End of iteration.    Wed Jan 21 17:16:43 2015        0.00 cpu,        0.00 elapsed
 RMSDP=7.39D-02 MaxDP=2.78D+00 DE=-9.83D+01 OVMax= 0.00D+00

 Start of iteration.  Wed Jan 21 17:16:43 2015        0.00 cpu,        0.00 elapsed
 Cycle   5  Pass 1  IDiag  1:
 After PChk2N.        Wed Jan 21 17:16:43 2015        0.00 cpu,        0.00 elapsed
 Before 2e terms.     Wed Jan 21 17:16:43 2015        0.00 cpu,        0.00 elapsed
 Top of FoFMem.       Wed Jan 21 17:16:43 2015        0.00 cpu,        0.00 elapsed
 End of FoFMem.       Wed Jan 21 17:16:46 2015        2.91 cpu,        2.91 elapsed
 After 2e             Wed Jan 21 17:16:46 2015        0.00 cpu,        0.00 elapsed
 E= -2101.12750269874     Delta-E=     -577.773714843974 Rises=F Damp=F
 DIIS: error= 2.59D-01 at cycle   5 NSaved=   5.
 NSaved= 5 IEnMin= 5 EnMin= -2101.12750269874     IErMin= 3 ErrMin= 2.21D-01
 ErrMax= 2.59D-01  0.00D+00 EMaxC= 1.00D-01 BMatC= 1.67D+02 BMatP= 9.53D+01
 IDIUse=2 WtCom= 0.00D+00 WtEn= 1.00D+00
 EnCoef did     6 forward-backward iterations
 Coeff-En:   0.000D+00 0.000D+00 0.355D+00 0.426D+00 0.219D+00
 Coeff:      0.000D+00 0.000D+00 0.355D+00 0.426D+00 0.219D+00
 After DIIS           Wed Jan 21 17:16:46 2015        0.05 cpu,        0.04 elapsed
 Top of DgFock.       Wed Jan 21 17:16:46 2015        0.00 cpu,        0.00 elapsed
 Gap=     0.517 Goal=   None    Shift=    0.000
 End of DgFock.       Wed Jan 21 17:16:46 2015        0.07 cpu,        0.08 elapsed
 End of iteration.    Wed Jan 21 17:16:46 2015        0.00 cpu,        0.00 elapsed
 RMSDP=5.90D-02 MaxDP=2.64D+00 DE=-5.78D+02 OVMax= 0.00D+00

 Start of iteration.  Wed Jan 21 17:16:46 2015        0.00 cpu,        0.00 elapsed
 Cycle   6  Pass 1  IDiag  1:
 After PChk2N.        Wed Jan 21 17:16:46 2015        0.00 cpu,        0.00 elapsed
 Before 2e terms.     Wed Jan 21 17:16:46 2015        0.00 cpu,        0.00 elapsed
 Top of FoFMem.       Wed Jan 21 17:16:46 2015        0.00 cpu,        0.00 elapsed
 End of FoFMem.       Wed Jan 21 17:16:49 2015        2.91 cpu,        2.91 elapsed
 After 2e             Wed Jan 21 17:16:49 2015        0.00 cpu,        0.00 elapsed
 E= -2238.32653777605     Delta-E=     -137.199035077309 Rises=F Damp=F
 DIIS: error= 3.87D-01 at cycle   6 NSaved=   6.
 NSaved= 6 IEnMin= 6 EnMin= -2238.32653777605     IErMin= 3 ErrMin= 2.21D-01
 ErrMax= 3.87D-01  0.00D+00 EMaxC= 1.00D-01 BMatC= 1.69D+02 BMatP= 9.53D+01
 IDIUse=2 WtCom= 0.00D+00 WtEn= 1.00D+00
 EnCoef did    25 forward-backward iterations
 Coeff-En:   0.000D+00 0.000D+00 0.785D-01 0.146D+00 0.378D+00 0.398D+00
 Coeff:      0.000D+00 0.000D+00 0.785D-01 0.146D+00 0.378D+00 0.398D+00
 After DIIS           Wed Jan 21 17:16:49 2015        0.05 cpu,        0.04 elapsed
 Top of DgFock.       Wed Jan 21 17:16:49 2015        0.00 cpu,        0.00 elapsed
 Gap=     0.637 Goal=   None    Shift=    0.000
 End of DgFock.       Wed Jan 21 17:16:49 2015        0.08 cpu,        0.08 elapsed
 End of iteration.    Wed Jan 21 17:16:49 2015        0.00 cpu,        0.00 elapsed
 RMSDP=6.81D-02 MaxDP=2.54D+00 DE=-1.37D+02 OVMax= 0.00D+00

 Start of iteration.  Wed Jan 21 17:16:49 2015        0.00 cpu,        0.00 elapsed
 Cycle   7  Pass 1  IDiag  1:
 After PChk2N.        Wed Jan 21 17:16:49 2015        0.00 cpu,        0.00 elapsed
 Before 2e terms.     Wed Jan 21 17:16:49 2015        0.00 cpu,        0.00 elapsed
 Top of FoFMem.       Wed Jan 21 17:16:49 2015        0.00 cpu,        0.00 elapsed
 End of FoFMem.       Wed Jan 21 17:16:52 2015        2.91 cpu,        2.91 elapsed
 After 2e             Wed Jan 21 17:16:52 2015        0.00 cpu,        0.00 elapsed
 E= -2172.41609642473     Delta-E=       65.910441351321 Rises=F Damp=F
 DIIS: error= 3.22D-01 at cycle   7 NSaved=   7.
 NSaved= 7 IEnMin= 6 EnMin= -2238.32653777605     IErMin= 3 ErrMin= 2.21D-01
 ErrMax= 3.22D-01  0.00D+00 EMaxC= 1.00D-01 BMatC= 1.77D+02 BMatP= 9.53D+01
 IDIUse=2 WtCom= 0.00D+00 WtEn= 1.00D+00
 EnCoef did     6 forward-backward iterations
 Coeff-En:   0.000D+00 0.000D+00 0.000D+00 0.214D-01 0.318D+00 0.437D+00
 Coeff-En:   0.224D+00
 Coeff:      0.000D+00 0.000D+00 0.000D+00 0.214D-01 0.318D+00 0.437D+00
 Coeff:      0.224D+00
 After DIIS           Wed Jan 21 17:16:52 2015        0.05 cpu,        0.04 elapsed
 Top of DgFock.       Wed Jan 21 17:16:52 2015        0.00 cpu,        0.00 elapsed
 Gap=     0.178 Goal=   None    Shift=    0.000
 End of DgFock.       Wed Jan 21 17:16:52 2015        0.08 cpu,        0.08 elapsed
 End of iteration.    Wed Jan 21 17:16:52 2015        0.00 cpu,        0.00 elapsed
 RMSDP=5.84D-02 MaxDP=2.24D+00 DE= 6.59D+01 OVMax= 0.00D+00

 Start of iteration.  Wed Jan 21 17:16:52 2015        0.00 cpu,        0.00 elapsed
 Cycle   8  Pass 1  IDiag  1:
 After PChk2N.        Wed Jan 21 17:16:52 2015        0.00 cpu,        0.00 elapsed
 Before 2e terms.     Wed Jan 21 17:16:52 2015        0.00 cpu,        0.00 elapsed
 Top of FoFMem.       Wed Jan 21 17:16:52 2015        0.00 cpu,        0.00 elapsed
 End of FoFMem.       Wed Jan 21 17:16:55 2015        2.91 cpu,        2.92 elapsed
 After 2e             Wed Jan 21 17:16:55 2015        0.00 cpu,        0.00 elapsed
 E= -2358.88320517546     Delta-E=     -186.467108750729 Rises=F Damp=F
 DIIS: error= 3.14D-01 at cycle   8 NSaved=   8.
 NSaved= 8 IEnMin= 8 EnMin= -2358.88320517546     IErMin= 3 ErrMin= 2.21D-01
 ErrMax= 3.14D-01  0.00D+00 EMaxC= 1.00D-01 BMatC= 1.07D+02 BMatP= 9.53D+01
 IDIUse=2 WtCom= 0.00D+00 WtEn= 1.00D+00
 EnCoef did   100 forward-backward iterations
 Coeff-En:   0.000D+00 0.000D+00 0.000D+00 0.556D-02 0.264D+00 0.357D+00
 Coeff-En:   0.200D+00 0.174D+00
 Coeff:      0.000D+00 0.000D+00 0.000D+00 0.556D-02 0.264D+00 0.357D+00
 Coeff:      0.200D+00 0.174D+00
 After DIIS           Wed Jan 21 17:16:55 2015        0.04 cpu,        0.04 elapsed
 Top of DgFock.       Wed Jan 21 17:16:55 2015        0.00 cpu,        0.00 elapsed
 Gap=    -0.724 Goal=   None    Shift=    0.000
 End of DgFock.       Wed Jan 21 17:16:55 2015        0.08 cpu,        0.08 elapsed
 End of iteration.    Wed Jan 21 17:16:55 2015        0.00 cpu,        0.00 elapsed
 RMSDP=4.45D-02 MaxDP=2.07D+00 DE=-1.86D+02 OVMax= 0.00D+00

 Start of iteration.  Wed Jan 21 17:16:55 2015        0.01 cpu,        0.00 elapsed
 Cycle   9  Pass 1  IDiag  1:
 After PChk2N.        Wed Jan 21 17:16:55 2015        0.00 cpu,        0.00 elapsed
 Before 2e terms.     Wed Jan 21 17:16:55 2015        0.00 cpu,        0.00 elapsed
 Top of FoFMem.       Wed Jan 21 17:16:55 2015        0.00 cpu,        0.00 elapsed
 End of FoFMem.       Wed Jan 21 17:16:58 2015        2.91 cpu,        2.92 elapsed
 After 2e             Wed Jan 21 17:16:58 2015        0.00 cpu,        0.00 elapsed
 E= -2334.54597345777     Delta-E=       24.337231717684 Rises=F Damp=F
 DIIS: error= 3.69D-01 at cycle   9 NSaved=   9.
 NSaved= 9 IEnMin= 8 EnMin= -2358.88320517546     IErMin= 3 ErrMin= 2.21D-01
 ErrMax= 3.69D-01  0.00D+00 EMaxC= 1.00D-01 BMatC= 1.25D+02 BMatP= 9.53D+01
 IDIUse=2 WtCom= 0.00D+00 WtEn= 1.00D+00
 EnCoef did    17 forward-backward iterations
 Coeff-En:   0.000D+00 0.000D+00 0.000D+00 0.000D+00 0.136D+00 0.193D+00
 Coeff-En:   0.605D-01 0.329D+00 0.282D+00
 Coeff:      0.000D+00 0.000D+00 0.000D+00 0.000D+00 0.136D+00 0.193D+00
 Coeff:      0.605D-01 0.329D+00 0.282D+00
 After DIIS           Wed Jan 21 17:16:58 2015        0.04 cpu,        0.04 elapsed
 Top of DgFock.       Wed Jan 21 17:16:58 2015        0.00 cpu,        0.00 elapsed
 Gap=    -0.262 Goal=   None    Shift=    0.000
 End of DgFock.       Wed Jan 21 17:16:58 2015        0.08 cpu,        0.08 elapsed
 End of iteration.    Wed Jan 21 17:16:58 2015        0.00 cpu,        0.00 elapsed
 RMSDP=3.68D-02 MaxDP=1.77D+00 DE= 2.43D+01 OVMax= 0.00D+00

 Start of iteration.  Wed Jan 21 17:16:58 2015        0.00 cpu,        0.00 elapsed
 Cycle  10  Pass 1  IDiag  1:
 After PChk2N.        Wed Jan 21 17:16:58 2015        0.00 cpu,        0.00 elapsed
 Before 2e terms.     Wed Jan 21 17:16:58 2015        0.00 cpu,        0.00 elapsed
 Top of FoFMem.       Wed Jan 21 17:16:58 2015        0.00 cpu,        0.00 elapsed
 End of FoFMem.       Wed Jan 21 17:17:01 2015        2.91 cpu,        2.92 elapsed
 After 2e             Wed Jan 21 17:17:01 2015        0.00 cpu,        0.00 elapsed
 E= -2441.61896142181     Delta-E=     -107.072987964035 Rises=F Damp=F
 DIIS: error= 1.92D-01 at cycle  10 NSaved=  10.
 NSaved=10 IEnMin=10 EnMin= -2441.61896142181     IErMin=10 ErrMin= 1.92D-01
 ErrMax= 1.92D-01  0.00D+00 EMaxC= 1.00D-01 BMatC= 8.14D+01 BMatP= 9.53D+01
 IDIUse=3 WtCom= 0.00D+00 WtEn= 1.00D+00
 EnCoef did     6 forward-backward iterations
 Coeff-Com: -0.390D-01 0.782D-01 0.166D+00 0.161D+00 0.832D-01 0.997D-01
 Coeff-Com:  0.625D-01 0.130D+00 0.116D+00 0.143D+00
 Coeff-En:   0.000D+00 0.000D+00 0.000D+00 0.000D+00 0.000D+00 0.676D-01
 Coeff-En:   0.000D+00 0.304D+00 0.349D+00 0.280D+00
 Coeff:      0.000D+00 0.000D+00 0.000D+00 0.000D+00 0.000D+00 0.676D-01
 Coeff:      0.000D+00 0.304D+00 0.349D+00 0.280D+00
 After DIIS           Wed Jan 21 17:17:01 2015        0.05 cpu,        0.04 elapsed
 Top of DgFock.       Wed Jan 21 17:17:01 2015        0.00 cpu,        0.00 elapsed
 Gap=    -0.209 Goal=   None    Shift=    0.000
 End of DgFock.       Wed Jan 21 17:17:01 2015        0.08 cpu,        0.08 elapsed
 End of iteration.    Wed Jan 21 17:17:01 2015        0.00 cpu,        0.00 elapsed
 RMSDP=3.17D-02 MaxDP=1.00D+00 DE=-1.07D+02 OVMax= 0.00D+00

 Start of iteration.  Wed Jan 21 17:17:01 2015        0.00 cpu,        0.00 elapsed
 Cycle  11  Pass 1  IDiag  1:
 After PChk2N.        Wed Jan 21 17:17:01 2015        0.00 cpu,        0.00 elapsed
 Before 2e terms.     Wed Jan 21 17:17:01 2015        0.00 cpu,        0.00 elapsed
 Top of FoFMem.       Wed Jan 21 17:17:01 2015        0.00 cpu,        0.00 elapsed
 End of FoFMem.       Wed Jan 21 17:17:04 2015        2.92 cpu,        2.92 elapsed
 After 2e             Wed Jan 21 17:17:04 2015        0.00 cpu,        0.00 elapsed
 E= -2543.49687182173     Delta-E=     -101.877910399922 Rises=F Damp=F
 DIIS: error= 2.64D-01 at cycle  11 NSaved=  11.
 NSaved=11 IEnMin=11 EnMin= -2543.49687182173     IErMin=10 ErrMin= 1.92D-01
 ErrMax= 2.64D-01  0.00D+00 EMaxC= 1.00D-01 BMatC= 3.44D+01 BMatP= 8.14D+01
 IDIUse=3 WtCom= 0.00D+00 WtEn= 1.00D+00
 EnCoef did   100 forward-backward iterations
 Coeff-Com: -0.285D-01 0.552D-01 0.126D+00 0.116D+00 0.590D-01 0.580D-01
 Coeff-Com:  0.594D-01 0.746D-01 0.829D-01 0.128D+00 0.269D+00
 Coeff-En:   0.000D+00 0.000D+00 0.000D+00 0.000D+00 0.000D+00 0.000D+00
 Coeff-En:   0.537D-02 0.165D+00 0.252D+00 0.228D+00 0.350D+00
 Coeff:      0.000D+00 0.000D+00 0.000D+00 0.000D+00 0.000D+00 0.000D+00
 Coeff:      0.537D-02 0.165D+00 0.252D+00 0.228D+00 0.350D+00
 After DIIS           Wed Jan 21 17:17:04 2015        0.04 cpu,        0.04 elapsed
 Top of DgFock.       Wed Jan 21 17:17:04 2015        0.00 cpu,        0.00 elapsed
 Gap=     0.060 Goal=   None    Shift=    0.000
 End of DgFock.       Wed Jan 21 17:17:04 2015        0.09 cpu,        0.08 elapsed
 End of iteration.    Wed Jan 21 17:17:04 2015        0.00 cpu,        0.00 elapsed
 RMSDP=2.72D-02 MaxDP=1.71D+00 DE=-1.02D+02 OVMax= 0.00D+00

 Start of iteration.  Wed Jan 21 17:17:04 2015        0.00 cpu,        0.00 elapsed
 Cycle  12  Pass 1  IDiag  1:
 After PChk2N.        Wed Jan 21 17:17:04 2015        0.00 cpu,        0.00 elapsed
 Before 2e terms.     Wed Jan 21 17:17:04 2015        0.00 cpu,        0.00 elapsed
 Top of FoFMem.       Wed Jan 21 17:17:04 2015        0.00 cpu,        0.00 elapsed
 End of FoFMem.       Wed Jan 21 17:17:07 2015        2.92 cpu,        2.92 elapsed
 After 2e             Wed Jan 21 17:17:07 2015        0.00 cpu,        0.00 elapsed
 E= -2560.53203746805     Delta-E=      -17.035165646321 Rises=F Damp=F
 DIIS: error= 1.56D-01 at cycle  12 NSaved=  12.
 NSaved=12 IEnMin=12 EnMin= -2560.53203746805     IErMin=12 ErrMin= 1.56D-01
 ErrMax= 1.56D-01  0.00D+00 EMaxC= 1.00D-01 BMatC= 1.91D+01 BMatP= 3.44D+01
 IDIUse=3 WtCom= 0.00D+00 WtEn= 1.00D+00
 EnCoef did    10 forward-backward iterations
 Coeff-Com: -0.155D-01 0.331D-01 0.732D-01 0.793D-01 0.575D-01 0.296D-01
 Coeff-Com:  0.267D-01 0.487D-01 0.574D-01 0.460D-01 0.233D+00 0.331D+00
 Coeff-En:   0.000D+00 0.000D+00 0.000D+00 0.000D+00 0.266D-01 0.000D+00
 Coeff-En:   0.000D+00 0.000D+00 0.609D-01 0.630D-01 0.395D+00 0.455D+00
 Coeff:      0.000D+00 0.000D+00 0.000D+00 0.000D+00 0.266D-01 0.000D+00
 Coeff:      0.000D+00 0.000D+00 0.609D-01 0.630D-01 0.395D+00 0.455D+00
 After DIIS           Wed Jan 21 17:17:07 2015        0.04 cpu,        0.04 elapsed
 Top of DgFock.       Wed Jan 21 17:17:07 2015        0.00 cpu,        0.00 elapsed
 Gap=     0.258 Goal=   None    Shift=    0.000
 End of DgFock.       Wed Jan 21 17:17:07 2015        0.07 cpu,        0.08 elapsed
 End of iteration.    Wed Jan 21 17:17:07 2015        0.01 cpu,        0.00 elapsed
 RMSDP=3.17D-02 MaxDP=1.48D+00 DE=-1.70D+01 OVMax= 0.00D+00

 Start of iteration.  Wed Jan 21 17:17:07 2015        0.01 cpu,        0.00 elapsed
 Cycle  13  Pass 1  IDiag  1:
 After PChk2N.        Wed Jan 21 17:17:07 2015        0.00 cpu,        0.00 elapsed
 Before 2e terms.     Wed Jan 21 17:17:07 2015        0.00 cpu,        0.00 elapsed
 Top of FoFMem.       Wed Jan 21 17:17:07 2015        0.00 cpu,        0.00 elapsed
 End of FoFMem.       Wed Jan 21 17:17:10 2015        2.91 cpu,        2.92 elapsed
 After 2e             Wed Jan 21 17:17:10 2015        0.00 cpu,        0.00 elapsed
 E= -2431.80881836206     Delta-E=      128.723219105994 Rises=F Damp=F
 DIIS: error= 3.21D-01 at cycle  13 NSaved=  13.
 NSaved=13 IEnMin=12 EnMin= -2560.53203746805     IErMin=12 ErrMin= 1.56D-01
 ErrMax= 3.21D-01  0.00D+00 EMaxC= 1.00D-01 BMatC= 9.48D+01 BMatP= 1.91D+01
 IDIUse=2 WtCom= 0.00D+00 WtEn= 1.00D+00
 EnCoef did     4 forward-backward iterations
 Coeff-En:   0.000D+00 0.000D+00 0.000D+00 0.000D+00 0.000D+00 0.000D+00
 Coeff-En:   0.000D+00 0.000D+00 0.000D+00 0.000D+00 0.349D+00 0.489D+00
 Coeff-En:   0.162D+00
 Coeff:      0.000D+00 0.000D+00 0.000D+00 0.000D+00 0.000D+00 0.000D+00
 Coeff:      0.000D+00 0.000D+00 0.000D+00 0.000D+00 0.349D+00 0.489D+00
 Coeff:      0.162D+00
 After DIIS           Wed Jan 21 17:17:10 2015        0.04 cpu,        0.04 elapsed
 Top of DgFock.       Wed Jan 21 17:17:10 2015        0.00 cpu,        0.00 elapsed
 Gap=     0.026 Goal=   None    Shift=    0.000
 End of DgFock.       Wed Jan 21 17:17:10 2015        0.08 cpu,        0.08 elapsed
 End of iteration.    Wed Jan 21 17:17:10 2015        0.00 cpu,        0.00 elapsed
 RMSDP=2.72D-02 MaxDP=8.98D-01 DE= 1.29D+02 OVMax= 0.00D+00

 Start of iteration.  Wed Jan 21 17:17:10 2015        0.00 cpu,        0.00 elapsed
 Cycle  14  Pass 1  IDiag  1:
 After PChk2N.        Wed Jan 21 17:17:10 2015        0.00 cpu,        0.00 elapsed
 Before 2e terms.     Wed Jan 21 17:17:10 2015        0.00 cpu,        0.00 elapsed
 Top of FoFMem.       Wed Jan 21 17:17:10 2015        0.01 cpu,        0.00 elapsed
 End of FoFMem.       Wed Jan 21 17:17:13 2015        2.91 cpu,        2.91 elapsed
 After 2e             Wed Jan 21 17:17:13 2015        0.00 cpu,        0.00 elapsed
 E= -2572.12414076803     Delta-E=     -140.315322405970 Rises=F Damp=F
 DIIS: error= 2.47D-01 at cycle  14 NSaved=  14.
 NSaved=14 IEnMin=14 EnMin= -2572.12414076803     IErMin=12 ErrMin= 1.56D-01
 ErrMax= 2.47D-01  0.00D+00 EMaxC= 1.00D-01 BMatC= 2.41D+01 BMatP= 1.91D+01
 IDIUse=2 WtCom= 0.00D+00 WtEn= 1.00D+00
 EnCoef did    13 forward-backward iterations
 Coeff-En:   0.000D+00 0.000D+00 0.000D+00 0.000D+00 0.000D+00 0.000D+00
 Coeff-En:   0.000D+00 0.184D-03 0.000D+00 0.000D+00 0.280D+00 0.390D+00
 Coeff-En:   0.481D-01 0.281D+00
 Coeff:      0.000D+00 0.000D+00 0.000D+00 0.000D+00 0.000D+00 0.000D+00
 Coeff:      0.000D+00 0.184D-03 0.000D+00 0.000D+00 0.280D+00 0.390D+00
 Coeff:      0.481D-01 0.281D+00
 After DIIS           Wed Jan 21 17:17:13 2015        0.04 cpu,        0.05 elapsed
 Top of DgFock.       Wed Jan 21 17:17:13 2015        0.00 cpu,        0.00 elapsed
 Gap=    -0.055 Goal=   None    Shift=    0.000
 End of DgFock.       Wed Jan 21 17:17:13 2015        0.08 cpu,        0.08 elapsed
 End of iteration.    Wed Jan 21 17:17:13 2015        0.00 cpu,        0.00 elapsed
 RMSDP=2.70D-02 MaxDP=8.90D-01 DE=-1.40D+02 OVMax= 0.00D+00

 Start of iteration.  Wed Jan 21 17:17:13 2015        0.01 cpu,        0.00 elapsed
 Cycle  15  Pass 1  IDiag  1:
 After PChk2N.        Wed Jan 21 17:17:13 2015        0.00 cpu,        0.00 elapsed
 Before 2e terms.     Wed Jan 21 17:17:13 2015        0.00 cpu,        0.00 elapsed
 Top of FoFMem.       Wed Jan 21 17:17:13 2015        0.00 cpu,        0.00 elapsed
 End of FoFMem.       Wed Jan 21 17:17:16 2015        2.91 cpu,        2.91 elapsed
 After 2e             Wed Jan 21 17:17:16 2015        0.00 cpu,        0.00 elapsed
 E= -2500.17222844690     Delta-E=       71.951912321130 Rises=F Damp=F
 DIIS: error= 3.40D-01 at cycle  15 NSaved=  15.
 NSaved=15 IEnMin=14 EnMin= -2572.12414076803     IErMin=12 ErrMin= 1.56D-01
 ErrMax= 3.40D-01  0.00D+00 EMaxC= 1.00D-01 BMatC= 6.02D+01 BMatP= 1.91D+01
 IDIUse=2 WtCom= 0.00D+00 WtEn= 1.00D+00
 EnCoef did     8 forward-backward iterations
 Coeff-En:   0.000D+00 0.000D+00 0.000D+00 0.000D+00 0.000D+00 0.000D+00
 Coeff-En:   0.000D+00 0.000D+00 0.000D+00 0.000D+00 0.164D+00 0.310D+00
 Coeff-En:   0.000D+00 0.385D+00 0.140D+00
 Coeff:      0.000D+00 0.000D+00 0.000D+00 0.000D+00 0.000D+00 0.000D+00
 Coeff:      0.000D+00 0.000D+00 0.000D+00 0.000D+00 0.164D+00 0.310D+00
 Coeff:      0.000D+00 0.385D+00 0.140D+00
 After DIIS           Wed Jan 21 17:17:16 2015        0.04 cpu,        0.05 elapsed
 Top of DgFock.       Wed Jan 21 17:17:16 2015        0.00 cpu,        0.00 elapsed
 Gap=     0.410 Goal=   None    Shift=    0.000
 End of DgFock.       Wed Jan 21 17:17:16 2015        0.08 cpu,        0.08 elapsed
 End of iteration.    Wed Jan 21 17:17:16 2015        0.01 cpu,        0.00 elapsed
 RMSDP=2.17D-02 MaxDP=8.96D-01 DE= 7.20D+01 OVMax= 0.00D+00

 Start of iteration.  Wed Jan 21 17:17:16 2015        0.00 cpu,        0.00 elapsed
 Cycle  16  Pass 1  IDiag  1:
 After PChk2N.        Wed Jan 21 17:17:16 2015        0.00 cpu,        0.00 elapsed
 Before 2e terms.     Wed Jan 21 17:17:16 2015        0.00 cpu,        0.00 elapsed
 Top of FoFMem.       Wed Jan 21 17:17:16 2015        0.00 cpu,        0.00 elapsed
 End of FoFMem.       Wed Jan 21 17:17:19 2015        2.91 cpu,        2.91 elapsed
 After 2e             Wed Jan 21 17:17:19 2015        0.00 cpu,        0.00 elapsed
 E= -2595.57694301610     Delta-E=      -95.404714569198 Rises=F Damp=F
 DIIS: error= 1.69D-01 at cycle  16 NSaved=  16.
 NSaved=16 IEnMin=16 EnMin= -2595.57694301610     IErMin=12 ErrMin= 1.56D-01
 ErrMax= 1.69D-01  0.00D+00 EMaxC= 1.00D-01 BMatC= 9.13D+00 BMatP= 1.91D+01
 IDIUse=3 WtCom= 0.00D+00 WtEn= 1.00D+00
 EnCoef did     3 forward-backward iterations
 Coeff-Com: -0.172D-01 0.289D-01 0.384D-01 0.302D-01 0.195D-01 0.189D-01
 Coeff-Com:  0.498D-02 0.176D-01 0.190D-01 0.198D-01 0.766D-01 0.178D+00
 Coeff-Com:  0.456D-01 0.177D+00 0.323D-01 0.311D+00
 Coeff-En:   0.000D+00 0.000D+00 0.000D+00 0.000D+00 0.000D+00 0.000D+00
 Coeff-En:   0.000D+00 0.000D+00 0.000D+00 0.000D+00 0.000D+00 0.472D-01
 Coeff-En:   0.000D+00 0.337D+00 0.000D+00 0.616D+00
 Coeff:      0.000D+00 0.000D+00 0.000D+00 0.000D+00 0.000D+00 0.000D+00
 Coeff:      0.000D+00 0.000D+00 0.000D+00 0.000D+00 0.000D+00 0.472D-01
 Coeff:      0.000D+00 0.337D+00 0.000D+00 0.616D+00
 After DIIS           Wed Jan 21 17:17:19 2015        0.04 cpu,        0.05 elapsed
 Top of DgFock.       Wed Jan 21 17:17:19 2015        0.01 cpu,        0.00 elapsed
 Gap=     0.159 Goal=   None    Shift=    0.000
 End of DgFock.       Wed Jan 21 17:17:20 2015        0.08 cpu,        0.08 elapsed
 End of iteration.    Wed Jan 21 17:17:20 2015        0.01 cpu,        0.00 elapsed
 RMSDP=1.79D-02 MaxDP=7.40D-01 DE=-9.54D+01 OVMax= 0.00D+00

 Start of iteration.  Wed Jan 21 17:17:20 2015        0.00 cpu,        0.00 elapsed
 Cycle  17  Pass 1  IDiag  1:
 After PChk2N.        Wed Jan 21 17:17:20 2015        0.00 cpu,        0.00 elapsed
 Before 2e terms.     Wed Jan 21 17:17:20 2015        0.00 cpu,        0.00 elapsed
 Top of FoFMem.       Wed Jan 21 17:17:20 2015        0.00 cpu,        0.00 elapsed
 End of FoFMem.       Wed Jan 21 17:17:22 2015        2.91 cpu,        2.91 elapsed
 After 2e             Wed Jan 21 17:17:22 2015        0.00 cpu,        0.00 elapsed
 E= -2580.41849889182     Delta-E=       15.158444124281 Rises=F Damp=F
 DIIS: error= 2.03D-01 at cycle  17 NSaved=  17.
 NSaved=17 IEnMin=16 EnMin= -2595.57694301610     IErMin=12 ErrMin= 1.56D-01
 ErrMax= 2.03D-01  0.00D+00 EMaxC= 1.00D-01 BMatC= 1.83D+01 BMatP= 9.13D+00
 IDIUse=2 WtCom= 0.00D+00 WtEn= 1.00D+00
 EnCoef did     5 forward-backward iterations
 Coeff-En:   0.000D+00 0.000D+00 0.000D+00 0.000D+00 0.000D+00 0.000D+00
 Coeff-En:   0.000D+00 0.000D+00 0.000D+00 0.000D+00 0.000D+00 0.000D+00
 Coeff-En:   0.000D+00 0.276D+00 0.000D+00 0.574D+00 0.150D+00
 Coeff:      0.000D+00 0.000D+00 0.000D+00 0.000D+00 0.000D+00 0.000D+00
 Coeff:      0.000D+00 0.000D+00 0.000D+00 0.000D+00 0.000D+00 0.000D+00
 Coeff:      0.000D+00 0.276D+00 0.000D+00 0.574D+00 0.150D+00
 After DIIS           Wed Jan 21 17:17:23 2015        0.04 cpu,        0.05 elapsed
 Top of DgFock.       Wed Jan 21 17:17:23 2015        0.00 cpu,        0.00 elapsed
 Gap=    -0.024 Goal=   None    Shift=    0.000
 End of DgFock.       Wed Jan 21 17:17:23 2015        0.08 cpu,        0.08 elapsed
 End of iteration.    Wed Jan 21 17:17:23 2015        0.01 cpu,        0.00 elapsed
 RMSDP=1.54D-02 MaxDP=4.06D-01 DE= 1.52D+01 OVMax= 0.00D+00

 Start of iteration.  Wed Jan 21 17:17:23 2015        0.00 cpu,        0.00 elapsed
 Cycle  18  Pass 1  IDiag  1:
 After PChk2N.        Wed Jan 21 17:17:23 2015        0.00 cpu,        0.00 elapsed
 Before 2e terms.     Wed Jan 21 17:17:23 2015        0.00 cpu,        0.00 elapsed
 Top of FoFMem.       Wed Jan 21 17:17:23 2015        0.00 cpu,        0.00 elapsed
 End of FoFMem.       Wed Jan 21 17:17:26 2015        2.91 cpu,        2.91 elapsed
 After 2e             Wed Jan 21 17:17:26 2015        0.00 cpu,        0.00 elapsed
 E= -2599.59415935729     Delta-E=      -19.175660465471 Rises=F Damp=F
 DIIS: error= 1.06D-01 at cycle  18 NSaved=  18.
 NSaved=18 IEnMin=18 EnMin= -2599.59415935729     IErMin=18 ErrMin= 1.06D-01
 ErrMax= 1.06D-01  0.00D+00 EMaxC= 1.00D-01 BMatC= 4.47D+00 BMatP= 9.13D+00
 IDIUse=3 WtCom= 0.00D+00 WtEn= 1.00D+00
 EnCoef did    18 forward-backward iterations
 Coeff-Com: -0.772D-02 0.137D-01 0.157D-01 0.171D-01 0.946D-02 0.101D-01
 Coeff-Com:  0.102D-02 0.107D-01 0.747D-02-0.224D-02 0.554D-01 0.442D-01
 Coeff-Com:  0.279D-01 0.627D-01 0.256D-01 0.257D+00 0.869D-01 0.365D+00
 Coeff-En:   0.000D+00 0.000D+00 0.000D+00 0.000D+00 0.000D+00 0.000D+00
 Coeff-En:   0.000D+00 0.000D+00 0.000D+00 0.000D+00 0.000D+00 0.000D+00
 Coeff-En:   0.000D+00 0.131D+00 0.000D+00 0.470D+00 0.835D-01 0.315D+00
 Coeff:      0.000D+00 0.000D+00 0.000D+00 0.000D+00 0.000D+00 0.000D+00
 Coeff:      0.000D+00 0.000D+00 0.000D+00 0.000D+00 0.000D+00 0.000D+00
 Coeff:      0.000D+00 0.131D+00 0.000D+00 0.470D+00 0.835D-01 0.315D+00
 After DIIS           Wed Jan 21 17:17:26 2015        0.04 cpu,        0.05 elapsed
 Top of DgFock.       Wed Jan 21 17:17:26 2015        0.00 cpu,        0.00 elapsed
 Gap=    -0.092 Goal=   None    Shift=    0.000
 End of DgFock.       Wed Jan 21 17:17:26 2015        0.08 cpu,        0.08 elapsed
 End of iteration.    Wed Jan 21 17:17:26 2015        0.01 cpu,        0.00 elapsed
 RMSDP=1.29D-02 MaxDP=6.22D-01 DE=-1.92D+01 OVMax= 0.00D+00

 Start of iteration.  Wed Jan 21 17:17:26 2015        0.00 cpu,        0.00 elapsed
 Cycle  19  Pass 1  IDiag  1:
 After PChk2N.        Wed Jan 21 17:17:26 2015        0.00 cpu,        0.00 elapsed
 Before 2e terms.     Wed Jan 21 17:17:26 2015        0.00 cpu,        0.00 elapsed
 Top of FoFMem.       Wed Jan 21 17:17:26 2015        0.00 cpu,        0.00 elapsed
 End of FoFMem.       Wed Jan 21 17:17:29 2015        2.91 cpu,        2.92 elapsed
 After 2e             Wed Jan 21 17:17:29 2015        0.01 cpu,        0.00 elapsed
 E= -2600.50479890231     Delta-E=       -0.910639545022 Rises=F Damp=F
 DIIS: error= 1.20D-01 at cycle  19 NSaved=  19.
 NSaved=19 IEnMin=19 EnMin= -2600.50479890231     IErMin=18 ErrMin= 1.06D-01
 ErrMax= 1.20D-01  0.00D+00 EMaxC= 1.00D-01 BMatC= 5.18D+00 BMatP= 4.47D+00
 IDIUse=2 WtCom= 0.00D+00 WtEn= 1.00D+00
 EnCoef did     4 forward-backward iterations
 Coeff-En:   0.000D+00 0.000D+00 0.000D+00 0.000D+00 0.000D+00 0.000D+00
 Coeff-En:   0.000D+00 0.000D+00 0.000D+00 0.000D+00 0.000D+00 0.000D+00
 Coeff-En:   0.000D+00 0.000D+00 0.000D+00 0.301D+00 0.000D+00 0.378D+00
 Coeff-En:   0.322D+00
 Coeff:      0.000D+00 0.000D+00 0.000D+00 0.000D+00 0.000D+00 0.000D+00
 Coeff:      0.000D+00 0.000D+00 0.000D+00 0.000D+00 0.000D+00 0.000D+00
 Coeff:      0.000D+00 0.000D+00 0.000D+00 0.301D+00 0.000D+00 0.378D+00
 Coeff:      0.322D+00
 After DIIS           Wed Jan 21 17:17:29 2015        0.04 cpu,        0.05 elapsed
 Top of DgFock.       Wed Jan 21 17:17:29 2015        0.00 cpu,        0.00 elapsed
 Gap=     0.019 Goal=   None    Shift=    0.000
 End of DgFock.       Wed Jan 21 17:17:29 2015        0.08 cpu,        0.08 elapsed
 End of iteration.    Wed Jan 21 17:17:29 2015        0.01 cpu,        0.00 elapsed
 RMSDP=1.09D-02 MaxDP=4.50D-01 DE=-9.11D-01 OVMax= 0.00D+00

 Start of iteration.  Wed Jan 21 17:17:29 2015        0.00 cpu,        0.00 elapsed
 Cycle  20  Pass 1  IDiag  1:
 After PChk2N.        Wed Jan 21 17:17:29 2015        0.00 cpu,        0.00 elapsed
 Before 2e terms.     Wed Jan 21 17:17:29 2015        0.00 cpu,        0.00 elapsed
 Top of FoFMem.       Wed Jan 21 17:17:29 2015        0.00 cpu,        0.00 elapsed
 End of FoFMem.       Wed Jan 21 17:17:32 2015        2.91 cpu,        2.91 elapsed
 After 2e             Wed Jan 21 17:17:32 2015        0.00 cpu,        0.00 elapsed
 E= -2607.84814912117     Delta-E=       -7.343350218860 Rises=F Damp=F
 DIIS: error= 5.33D-02 at cycle  20 NSaved=  20.
 NSaved=20 IEnMin=20 EnMin= -2607.84814912117     IErMin=20 ErrMin= 5.33D-02
 ErrMax= 5.33D-02  0.00D+00 EMaxC= 1.00D-01 BMatC= 6.86D-01 BMatP= 4.47D+00
 IDIUse=3 WtCom= 4.67D-01 WtEn= 5.33D-01
 EnCoef did     2 forward-backward iterations
 Coeff-Com: -0.151D-02 0.274D-02 0.195D-02 0.547D-02 0.320D-03-0.995D-03
 Coeff-Com:  0.234D-02 0.329D-02 0.395D-02 0.198D-02-0.494D-02 0.208D-01
 Coeff-Com:  0.886D-02 0.783D-03 0.953D-02 0.672D-01 0.283D-01 0.104D+00
 Coeff-Com:  0.149D+00 0.597D+00
 Coeff-En:   0.000D+00 0.000D+00 0.000D+00 0.000D+00 0.000D+00 0.000D+00
 Coeff-En:   0.000D+00 0.000D+00 0.000D+00 0.000D+00 0.000D+00 0.000D+00
 Coeff-En:   0.000D+00 0.000D+00 0.000D+00 0.000D+00 0.000D+00 0.297D-01
 Coeff-En:   0.837D-01 0.887D+00
 Coeff:     -0.706D-03 0.128D-02 0.908D-03 0.255D-02 0.149D-03-0.464D-03
 Coeff:      0.109D-02 0.153D-02 0.184D-02 0.925D-03-0.230D-02 0.972D-02
 Coeff:      0.413D-02 0.365D-03 0.445D-02 0.314D-01 0.132D-01 0.644D-01
 Coeff:      0.114D+00 0.751D+00
 After DIIS           Wed Jan 21 17:17:32 2015        0.04 cpu,        0.05 elapsed
 Top of DgFock.       Wed Jan 21 17:17:32 2015        0.00 cpu,        0.00 elapsed
 Gap=     0.076 Goal=   None    Shift=    0.000
 End of DgFock.       Wed Jan 21 17:17:32 2015        0.09 cpu,        0.08 elapsed
 End of iteration.    Wed Jan 21 17:17:32 2015        0.01 cpu,        0.00 elapsed
 RMSDP=7.34D-03 MaxDP=2.55D-01 DE=-7.34D+00 OVMax= 0.00D+00

 Start of iteration.  Wed Jan 21 17:17:32 2015        0.00 cpu,        0.00 elapsed
 Cycle  21  Pass 1  IDiag  1:
 After PChk2N.        Wed Jan 21 17:17:32 2015        0.00 cpu,        0.00 elapsed
 Before 2e terms.     Wed Jan 21 17:17:32 2015        0.00 cpu,        0.00 elapsed
 Top of FoFMem.       Wed Jan 21 17:17:32 2015        0.00 cpu,        0.00 elapsed
 End of FoFMem.       Wed Jan 21 17:17:35 2015        2.91 cpu,        2.92 elapsed
 After 2e             Wed Jan 21 17:17:35 2015        0.00 cpu,        0.00 elapsed
 E= -2607.05193419529     Delta-E=        0.796214925882 Rises=F Damp=F
 DIIS: error= 6.96D-02 at cycle  21 NSaved=  20.
 NSaved=20 IEnMin=19 EnMin= -2607.84814912117     IErMin=19 ErrMin= 5.33D-02
 ErrMax= 6.96D-02  0.00D+00 EMaxC= 1.00D-01 BMatC= 1.48D+00 BMatP= 6.86D-01
 IDIUse=2 WtCom= 0.00D+00 WtEn= 1.00D+00
 Coeff-En:   0.000D+00 0.000D+00 0.000D+00 0.000D+00 0.000D+00 0.000D+00
 Coeff-En:   0.000D+00 0.000D+00 0.000D+00 0.000D+00 0.000D+00 0.000D+00
 Coeff-En:   0.000D+00 0.000D+00 0.000D+00 0.000D+00 0.000D+00 0.000D+00
 Coeff-En:   0.611D+00 0.389D+00
 Coeff:      0.000D+00 0.000D+00 0.000D+00 0.000D+00 0.000D+00 0.000D+00
 Coeff:      0.000D+00 0.000D+00 0.000D+00 0.000D+00 0.000D+00 0.000D+00
 Coeff:      0.000D+00 0.000D+00 0.000D+00 0.000D+00 0.000D+00 0.000D+00
 Coeff:      0.611D+00 0.389D+00
 After DIIS           Wed Jan 21 17:17:35 2015        0.05 cpu,        0.05 elapsed
 Top of DgFock.       Wed Jan 21 17:17:35 2015        0.00 cpu,        0.00 elapsed
 Gap=     0.144 Goal=   None    Shift=    0.000
 End of DgFock.       Wed Jan 21 17:17:35 2015        0.08 cpu,        0.08 elapsed
 End of iteration.    Wed Jan 21 17:17:35 2015        0.00 cpu,        0.00 elapsed
 RMSDP=4.47D-03 MaxDP=1.75D-01 DE= 7.96D-01 OVMax= 0.00D+00

 Start of iteration.  Wed Jan 21 17:17:35 2015        0.00 cpu,        0.00 elapsed
 Cycle  22  Pass 1  IDiag  1:
 After PChk2N.        Wed Jan 21 17:17:35 2015        0.00 cpu,        0.00 elapsed
 Before 2e terms.     Wed Jan 21 17:17:35 2015        0.00 cpu,        0.00 elapsed
 Top of FoFMem.       Wed Jan 21 17:17:35 2015        0.00 cpu,        0.00 elapsed
 End of FoFMem.       Wed Jan 21 17:17:38 2015        2.92 cpu,        2.92 elapsed
 After 2e             Wed Jan 21 17:17:38 2015        0.00 cpu,        0.00 elapsed
 E= -2608.63534147640     Delta-E=       -1.583407281112 Rises=F Damp=F
 DIIS: error= 1.95D-02 at cycle  22 NSaved=  20.
 NSaved=20 IEnMin=20 EnMin= -2608.63534147640     IErMin=20 ErrMin= 1.95D-02
 ErrMax= 1.95D-02  0.00D+00 EMaxC= 1.00D-01 BMatC= 1.21D-01 BMatP= 6.86D-01
 IDIUse=3 WtCom= 8.05D-01 WtEn= 1.95D-01
 Coeff-Com:  0.915D-04 0.125D-03-0.473D-03 0.101D-03 0.351D-03-0.520D-03
 Coeff-Com:  0.663D-03 0.427D-03-0.295D-04-0.685D-03-0.789D-04-0.514D-02
 Coeff-Com:  0.142D-02 0.983D-02-0.787D-02-0.274D-02-0.103D-01 0.313D+00
 Coeff-Com:  0.190D+00 0.512D+00
 Coeff-En:   0.000D+00 0.000D+00 0.000D+00 0.000D+00 0.000D+00 0.000D+00
 Coeff-En:   0.000D+00 0.000D+00 0.000D+00 0.000D+00 0.000D+00 0.000D+00
 Coeff-En:   0.000D+00 0.000D+00 0.000D+00 0.000D+00 0.000D+00 0.600D-01
 Coeff-En:   0.000D+00 0.940D+00
 Coeff:      0.737D-04 0.101D-03-0.381D-03 0.815D-04 0.282D-03-0.419D-03
 Coeff:      0.533D-03 0.344D-03-0.237D-04-0.551D-03-0.636D-04-0.414D-02
 Coeff:      0.114D-02 0.791D-02-0.634D-02-0.221D-02-0.831D-02 0.264D+00
 Coeff:      0.153D+00 0.595D+00
 After DIIS           Wed Jan 21 17:17:38 2015        0.04 cpu,        0.05 elapsed
 Top of DgFock.       Wed Jan 21 17:17:38 2015        0.00 cpu,        0.00 elapsed
 Gap=     0.143 Goal=   None    Shift=    0.000
 End of DgFock.       Wed Jan 21 17:17:38 2015        0.09 cpu,        0.08 elapsed
 End of iteration.    Wed Jan 21 17:17:38 2015        0.01 cpu,        0.00 elapsed
 RMSDP=2.29D-03 MaxDP=8.02D-02 DE=-1.58D+00 OVMax= 0.00D+00

 Start of iteration.  Wed Jan 21 17:17:38 2015        0.00 cpu,        0.00 elapsed
 Cycle  23  Pass 1  IDiag  1:
 After PChk2N.        Wed Jan 21 17:17:38 2015        0.00 cpu,        0.00 elapsed
 Before 2e terms.     Wed Jan 21 17:17:38 2015        0.00 cpu,        0.00 elapsed
 Top of FoFMem.       Wed Jan 21 17:17:38 2015        0.00 cpu,        0.00 elapsed
 End of FoFMem.       Wed Jan 21 17:17:41 2015        2.91 cpu,        2.92 elapsed
 After 2e             Wed Jan 21 17:17:41 2015        0.00 cpu,        0.00 elapsed
 E= -2608.74021949724     Delta-E=       -0.104878020846 Rises=F Damp=F
 DIIS: error= 1.37D-02 at cycle  23 NSaved=  20.
 NSaved=20 IEnMin=20 EnMin= -2608.74021949724     IErMin=20 ErrMin= 1.37D-02
 ErrMax= 1.37D-02  0.00D+00 EMaxC= 1.00D-01 BMatC= 6.08D-02 BMatP= 1.21D-01
 IDIUse=3 WtCom= 8.63D-01 WtEn= 1.37D-01
 Coeff-Com: -0.137D-04 0.184D-03-0.845D-04 0.297D-03 0.276D-03 0.352D-03
 Coeff-Com:  0.184D-03-0.461D-03 0.138D-02 0.448D-04-0.607D-03 0.717D-03
 Coeff-Com: -0.240D-02-0.112D-02-0.306D-02-0.388D-02 0.436D-01-0.102D-01
 Coeff-Com:  0.415D+00 0.560D+00
 Coeff-En:   0.000D+00 0.000D+00 0.000D+00 0.000D+00 0.000D+00 0.000D+00
 Coeff-En:   0.000D+00 0.000D+00 0.000D+00 0.000D+00 0.000D+00 0.000D+00
 Coeff-En:   0.000D+00 0.000D+00 0.000D+00 0.000D+00 0.000D+00 0.000D+00
 Coeff-En:   0.323D+00 0.677D+00
 Coeff:     -0.118D-04 0.159D-03-0.729D-04 0.256D-03 0.238D-03 0.304D-03
 Coeff:      0.159D-03-0.398D-03 0.119D-02 0.387D-04-0.524D-03 0.619D-03
 Coeff:     -0.207D-02-0.966D-03-0.264D-02-0.334D-02 0.376D-01-0.883D-02
 Coeff:      0.402D+00 0.576D+00
 After DIIS           Wed Jan 21 17:17:41 2015        0.04 cpu,        0.05 elapsed
 Top of DgFock.       Wed Jan 21 17:17:41 2015        0.00 cpu,        0.00 elapsed
 Gap=     0.124 Goal=   None    Shift=    0.000
 End of DgFock.       Wed Jan 21 17:17:41 2015        0.09 cpu,        0.08 elapsed
 End of iteration.    Wed Jan 21 17:17:41 2015        0.01 cpu,        0.00 elapsed
 RMSDP=1.23D-03 MaxDP=4.88D-02 DE=-1.05D-01 OVMax= 0.00D+00

 Start of iteration.  Wed Jan 21 17:17:41 2015        0.00 cpu,        0.00 elapsed
 Cycle  24  Pass 1  IDiag  1:
 After PChk2N.        Wed Jan 21 17:17:41 2015        0.00 cpu,        0.00 elapsed
 Before 2e terms.     Wed Jan 21 17:17:41 2015        0.00 cpu,        0.00 elapsed
 Top of FoFMem.       Wed Jan 21 17:17:41 2015        0.00 cpu,        0.00 elapsed
 End of FoFMem.       Wed Jan 21 17:17:44 2015        2.91 cpu,        2.91 elapsed
 After 2e             Wed Jan 21 17:17:44 2015        0.00 cpu,        0.00 elapsed
 E= -2608.81772016629     Delta-E=       -0.077500669044 Rises=F Damp=F
 DIIS: error= 4.62D-03 at cycle  24 NSaved=  20.
 NSaved=20 IEnMin=20 EnMin= -2608.81772016629     IErMin=20 ErrMin= 4.62D-03
 ErrMax= 4.62D-03  0.00D+00 EMaxC= 1.00D-01 BMatC= 9.01D-03 BMatP= 6.08D-02
 IDIUse=3 WtCom= 9.54D-01 WtEn= 4.62D-02
 Coeff-Com: -0.670D-04 0.477D-04 0.151D-04-0.467D-04 0.108D-04 0.134D-03
 Coeff-Com:  0.331D-03 0.110D-02-0.963D-05 0.151D-03 0.489D-05-0.418D-02
 Coeff-Com: -0.453D-03 0.100D-02 0.829D-03-0.333D-01-0.301D-01 0.167D+00
 Coeff-Com:  0.372D+00 0.526D+00
 Coeff-En:   0.000D+00 0.000D+00 0.000D+00 0.000D+00 0.000D+00 0.000D+00
 Coeff-En:   0.000D+00 0.000D+00 0.000D+00 0.000D+00 0.000D+00 0.000D+00
 Coeff-En:   0.000D+00 0.000D+00 0.000D+00 0.000D+00 0.000D+00 0.000D+00
 Coeff-En:   0.000D+00 0.100D+01
 Coeff:     -0.639D-04 0.455D-04 0.144D-04-0.445D-04 0.103D-04 0.128D-03
 Coeff:      0.316D-03 0.105D-02-0.918D-05 0.144D-03 0.466D-05-0.399D-02
 Coeff:     -0.432D-03 0.954D-03 0.790D-03-0.318D-01-0.287D-01 0.159D+00
 Coeff:      0.355D+00 0.548D+00
 After DIIS           Wed Jan 21 17:17:44 2015        0.04 cpu,        0.05 elapsed
 Top of DgFock.       Wed Jan 21 17:17:44 2015        0.00 cpu,        0.00 elapsed
 Gap=     0.130 Goal=   None    Shift=    0.000
 End of DgFock.       Wed Jan 21 17:17:44 2015        0.09 cpu,        0.08 elapsed
 End of iteration.    Wed Jan 21 17:17:44 2015        0.00 cpu,        0.00 elapsed
 RMSDP=6.61D-04 MaxDP=1.53D-02 DE=-7.75D-02 OVMax= 0.00D+00

 Start of iteration.  Wed Jan 21 17:17:44 2015        0.00 cpu,        0.00 elapsed
 Cycle  25  Pass 1  IDiag  1:
 After PChk2N.        Wed Jan 21 17:17:44 2015        0.00 cpu,        0.00 elapsed
 Before 2e terms.     Wed Jan 21 17:17:44 2015        0.00 cpu,        0.00 elapsed
 Top of FoFMem.       Wed Jan 21 17:17:44 2015        0.00 cpu,        0.00 elapsed
 End of FoFMem.       Wed Jan 21 17:17:47 2015        2.91 cpu,        2.91 elapsed
 After 2e             Wed Jan 21 17:17:47 2015        0.00 cpu,        0.00 elapsed
 E= -2608.83496202236     Delta-E=       -0.017241856076 Rises=F Damp=F
 DIIS: error= 2.66D-03 at cycle  25 NSaved=  20.
 NSaved=20 IEnMin=20 EnMin= -2608.83496202236     IErMin=20 ErrMin= 2.66D-03
 ErrMax= 2.66D-03  0.00D+00 EMaxC= 1.00D-01 BMatC= 2.86D-03 BMatP= 9.01D-03
 IDIUse=3 WtCom= 9.73D-01 WtEn= 2.66D-02
 Coeff-Com:  0.210D-04 0.616D-04 0.143D-04-0.125D-05 0.990D-04 0.184D-03
 Coeff-Com: -0.419D-03 0.112D-03 0.207D-03 0.224D-04-0.211D-02-0.751D-03
 Coeff-Com:  0.351D-02-0.677D-03-0.330D-01-0.177D-01-0.849D-03 0.664D-01
 Coeff-Com:  0.357D+00 0.628D+00
 Coeff-En:   0.000D+00 0.000D+00 0.000D+00 0.000D+00 0.000D+00 0.000D+00
 Coeff-En:   0.000D+00 0.000D+00 0.000D+00 0.000D+00 0.000D+00 0.000D+00
 Coeff-En:   0.000D+00 0.000D+00 0.000D+00 0.000D+00 0.000D+00 0.000D+00
 Coeff-En:   0.000D+00 0.100D+01
 Coeff:      0.204D-04 0.599D-04 0.139D-04-0.122D-05 0.964D-04 0.179D-03
 Coeff:     -0.408D-03 0.109D-03 0.201D-03 0.218D-04-0.205D-02-0.731D-03
 Coeff:      0.342D-02-0.659D-03-0.321D-01-0.173D-01-0.826D-03 0.646D-01
 Coeff:      0.347D+00 0.638D+00
 After DIIS           Wed Jan 21 17:17:47 2015        0.05 cpu,        0.05 elapsed
 Top of DgFock.       Wed Jan 21 17:17:47 2015        0.00 cpu,        0.00 elapsed
 Gap=     0.133 Goal=   None    Shift=    0.000
 End of DgFock.       Wed Jan 21 17:17:47 2015        0.08 cpu,        0.08 elapsed
 End of iteration.    Wed Jan 21 17:17:47 2015        0.00 cpu,        0.00 elapsed
 RMSDP=5.41D-04 MaxDP=1.35D-02 DE=-1.72D-02 OVMax= 0.00D+00

 Start of iteration.  Wed Jan 21 17:17:47 2015        0.00 cpu,        0.00 elapsed
 Cycle  26  Pass 1  IDiag  1:
 After PChk2N.        Wed Jan 21 17:17:47 2015        0.00 cpu,        0.00 elapsed
 Before 2e terms.     Wed Jan 21 17:17:47 2015        0.00 cpu,        0.00 elapsed
 Top of FoFMem.       Wed Jan 21 17:17:47 2015        0.00 cpu,        0.00 elapsed
 End of FoFMem.       Wed Jan 21 17:17:50 2015        2.92 cpu,        2.91 elapsed
 After 2e             Wed Jan 21 17:17:50 2015        0.00 cpu,        0.00 elapsed
 E= -2608.84555276945     Delta-E=       -0.010590747082 Rises=F Damp=F
 DIIS: error= 1.74D-03 at cycle  26 NSaved=  20.
 NSaved=20 IEnMin=20 EnMin= -2608.84555276945     IErMin=20 ErrMin= 1.74D-03
 ErrMax= 1.74D-03  0.00D+00 EMaxC= 1.00D-01 BMatC= 1.29D-03 BMatP= 2.86D-03
 IDIUse=3 WtCom= 9.83D-01 WtEn= 1.74D-02
 Coeff-Com: -0.212D-04-0.240D-04 0.790D-04 0.630D-06 0.752D-05-0.189D-04
 Coeff-Com: -0.188D-03 0.111D-03-0.121D-03 0.868D-04-0.963D-04 0.186D-02
 Coeff-Com:  0.354D-03-0.353D-02 0.546D-02-0.867D-01-0.163D+00-0.581D-01
 Coeff-Com:  0.449D+00 0.854D+00
 Coeff-En:   0.000D+00 0.000D+00 0.000D+00 0.000D+00 0.000D+00 0.000D+00
 Coeff-En:   0.000D+00 0.000D+00 0.000D+00 0.000D+00 0.000D+00 0.000D+00
 Coeff-En:   0.000D+00 0.000D+00 0.000D+00 0.000D+00 0.000D+00 0.000D+00
 Coeff-En:   0.000D+00 0.100D+01
 Coeff:     -0.208D-04-0.236D-04 0.776D-04 0.619D-06 0.739D-05-0.186D-04
 Coeff:     -0.185D-03 0.109D-03-0.119D-03 0.853D-04-0.946D-04 0.183D-02
 Coeff:      0.348D-03-0.347D-02 0.536D-02-0.852D-01-0.160D+00-0.571D-01
 Coeff:      0.442D+00 0.857D+00
 After DIIS           Wed Jan 21 17:17:50 2015        0.04 cpu,        0.05 elapsed
 Top of DgFock.       Wed Jan 21 17:17:50 2015        0.00 cpu,        0.00 elapsed
 Gap=     0.138 Goal=   None    Shift=    0.000
 End of DgFock.       Wed Jan 21 17:17:50 2015        0.08 cpu,        0.08 elapsed
 End of iteration.    Wed Jan 21 17:17:50 2015        0.01 cpu,        0.00 elapsed
 RMSDP=6.56D-04 MaxDP=1.29D-02 DE=-1.06D-02 OVMax= 0.00D+00

 Start of iteration.  Wed Jan 21 17:17:50 2015        0.00 cpu,        0.00 elapsed
 Cycle  27  Pass 1  IDiag  1:
 After PChk2N.        Wed Jan 21 17:17:50 2015        0.00 cpu,        0.00 elapsed
 Before 2e terms.     Wed Jan 21 17:17:50 2015        0.00 cpu,        0.00 elapsed
 Top of FoFMem.       Wed Jan 21 17:17:50 2015        0.00 cpu,        0.00 elapsed
 End of FoFMem.       Wed Jan 21 17:17:53 2015        2.91 cpu,        2.91 elapsed
 After 2e             Wed Jan 21 17:17:53 2015        0.00 cpu,        0.00 elapsed
 E= -2608.85549227650     Delta-E=       -0.009939507052 Rises=F Damp=F
 DIIS: error= 1.45D-03 at cycle  27 NSaved=  20.
 NSaved=20 IEnMin=20 EnMin= -2608.85549227650     IErMin=20 ErrMin= 1.45D-03
 ErrMax= 1.45D-03  0.00D+00 EMaxC= 1.00D-01 BMatC= 5.86D-04 BMatP= 1.29D-03
 IDIUse=3 WtCom= 9.86D-01 WtEn= 1.45D-02
 Coeff-Com:  0.305D-04 0.418D-04-0.591D-04-0.137D-03 0.792D-03-0.346D-04
 Coeff-Com: -0.346D-03 0.260D-04 0.101D-02 0.352D-03-0.719D-05-0.568D-03
 Coeff-Com:  0.968D-02 0.468D-02-0.274D-01-0.799D-01-0.141D+00 0.245D-01
 Coeff-Com:  0.344D+00 0.864D+00
 Coeff-En:   0.000D+00 0.000D+00 0.000D+00 0.000D+00 0.000D+00 0.000D+00
 Coeff-En:   0.000D+00 0.000D+00 0.000D+00 0.000D+00 0.000D+00 0.000D+00
 Coeff-En:   0.000D+00 0.000D+00 0.000D+00 0.000D+00 0.000D+00 0.000D+00
 Coeff-En:   0.000D+00 0.100D+01
 Coeff:      0.300D-04 0.412D-04-0.582D-04-0.135D-03 0.781D-03-0.341D-04
 Coeff:     -0.341D-03 0.257D-04 0.100D-02 0.347D-03-0.709D-05-0.560D-03
 Coeff:      0.954D-02 0.461D-02-0.270D-01-0.787D-01-0.139D+00 0.241D-01
 Coeff:      0.339D+00 0.866D+00
 After DIIS           Wed Jan 21 17:17:53 2015        0.05 cpu,        0.05 elapsed
 Top of DgFock.       Wed Jan 21 17:17:53 2015        0.00 cpu,        0.00 elapsed
 Gap=     0.141 Goal=   None    Shift=    0.000
 End of DgFock.       Wed Jan 21 17:17:53 2015        0.08 cpu,        0.08 elapsed
 End of iteration.    Wed Jan 21 17:17:53 2015        0.01 cpu,        0.00 elapsed
 RMSDP=4.76D-04 MaxDP=1.43D-02 DE=-9.94D-03 OVMax= 0.00D+00

 Start of iteration.  Wed Jan 21 17:17:53 2015        0.00 cpu,        0.00 elapsed
 Cycle  28  Pass 1  IDiag  1:
 After PChk2N.        Wed Jan 21 17:17:53 2015        0.00 cpu,        0.00 elapsed
 Before 2e terms.     Wed Jan 21 17:17:53 2015        0.00 cpu,        0.00 elapsed
 Top of FoFMem.       Wed Jan 21 17:17:53 2015        0.00 cpu,        0.00 elapsed
 End of FoFMem.       Wed Jan 21 17:17:56 2015        2.91 cpu,        2.91 elapsed
 After 2e             Wed Jan 21 17:17:56 2015        0.00 cpu,        0.00 elapsed
 E= -2608.86115466578     Delta-E=       -0.005662389283 Rises=F Damp=F
 DIIS: error= 1.12D-03 at cycle  28 NSaved=  20.
 NSaved=20 IEnMin=20 EnMin= -2608.86115466578     IErMin=20 ErrMin= 1.12D-03
 ErrMax= 1.12D-03  0.00D+00 EMaxC= 1.00D-01 BMatC= 4.30D-04 BMatP= 5.86D-04
 IDIUse=3 WtCom= 9.89D-01 WtEn= 1.12D-02
 Coeff-Com:  0.143D-03-0.305D-04-0.141D-03 0.760D-03-0.291D-04-0.465D-03
[...]
 DIIS: error= 3.36D-08 at cycle  73 NSaved=  20.
 NSaved=20 IEnMin=17 EnMin= -2608.87761920147     IErMin=20 ErrMin= 3.36D-08
 ErrMax= 3.36D-08  0.00D+00 EMaxC= 1.00D-01 BMatC= 3.34D-13 BMatP= 5.94D-13
 IDIUse=1 WtCom= 1.00D+00 WtEn= 0.00D+00
 Coeff-Com: -0.214D-02 0.283D-02 0.406D-02-0.248D-02-0.129D-01-0.819D-02
 Coeff-Com:  0.205D-01 0.300D-01 0.108D-01-0.580D-01-0.631D-01 0.188D-01
 Coeff-Com:  0.111D+00 0.107D+00 0.360D-01-0.253D+00-0.372D+00-0.213D-01
 Coeff-Com:  0.610D+00 0.841D+00
 Coeff:     -0.214D-02 0.283D-02 0.406D-02-0.248D-02-0.129D-01-0.819D-02
 Coeff:      0.205D-01 0.300D-01 0.108D-01-0.580D-01-0.631D-01 0.188D-01
 Coeff:      0.111D+00 0.107D+00 0.360D-01-0.253D+00-0.372D+00-0.213D-01
 Coeff:      0.610D+00 0.841D+00
 After DIIS           Wed Jan 21 17:20:08 2015        0.05 cpu,        0.05 elapsed
 Top of DgFock.       Wed Jan 21 17:20:08 2015        0.00 cpu,        0.00 elapsed
 Gap=     0.149 Goal=   None    Shift=    0.000
 End of DgFock.       Wed Jan 21 17:20:08 2015        0.09 cpu,        0.09 elapsed
 End of iteration.    Wed Jan 21 17:20:08 2015        0.00 cpu,        0.00 elapsed
 RMSDP=2.30D-08 MaxDP=5.66D-07 DE= 1.56D-10 OVMax= 0.00D+00

 Start of iteration.  Wed Jan 21 17:20:08 2015        0.00 cpu,        0.00 elapsed
 Cycle  74  Pass 1  IDiag  1:
 After PChk2N.        Wed Jan 21 17:20:08 2015        0.00 cpu,        0.00 elapsed
 Before 2e terms.     Wed Jan 21 17:20:08 2015        0.00 cpu,        0.00 elapsed
 Top of FoFMem.       Wed Jan 21 17:20:08 2015        0.00 cpu,        0.00 elapsed
 End of FoFMem.       Wed Jan 21 17:20:10 2015        2.70 cpu,        2.70 elapsed
 After 2e             Wed Jan 21 17:20:10 2015        0.00 cpu,        0.00 elapsed
 E= -2608.87761920130     Delta-E=       -0.000000000055 Rises=F Damp=F
 DIIS: error= 2.94D-08 at cycle  74 NSaved=  20.
 NSaved=20 IEnMin=16 EnMin= -2608.87761920147     IErMin=20 ErrMin= 2.94D-08
 ErrMax= 2.94D-08  0.00D+00 EMaxC= 1.00D-01 BMatC= 1.92D-13 BMatP= 3.34D-13
 IDIUse=1 WtCom= 1.00D+00 WtEn= 0.00D+00
 Coeff-Com:  0.102D-02-0.192D-03 0.128D-02-0.195D-02-0.429D-02-0.341D-02
 Coeff-Com:  0.691D-02 0.181D-01 0.133D-02-0.347D-01-0.329D-01 0.143D-01
 Coeff-Com:  0.468D-01 0.814D-01-0.246D-01-0.151D+00-0.206D+00-0.642D-01
 Coeff-Com:  0.513D+00 0.839D+00
 Coeff:      0.102D-02-0.192D-03 0.128D-02-0.195D-02-0.429D-02-0.341D-02
 Coeff:      0.691D-02 0.181D-01 0.133D-02-0.347D-01-0.329D-01 0.143D-01
 Coeff:      0.468D-01 0.814D-01-0.246D-01-0.151D+00-0.206D+00-0.642D-01
 Coeff:      0.513D+00 0.839D+00
 After DIIS           Wed Jan 21 17:20:10 2015        0.05 cpu,        0.05 elapsed
 Top of DgFock.       Wed Jan 21 17:20:10 2015        0.00 cpu,        0.00 elapsed
 Gap=     0.149 Goal=   None    Shift=    0.000
 End of DgFock.       Wed Jan 21 17:20:10 2015        0.09 cpu,        0.09 elapsed
 End of iteration.    Wed Jan 21 17:20:10 2015        0.00 cpu,        0.00 elapsed
 RMSDP=2.18D-08 MaxDP=4.93D-07 DE=-5.46D-11 OVMax= 0.00D+00

 Start of iteration.  Wed Jan 21 17:20:10 2015        0.00 cpu,        0.00 elapsed
 Cycle  75  Pass 1  IDiag  1:
 After PChk2N.        Wed Jan 21 17:20:10 2015        0.00 cpu,        0.00 elapsed
 Before 2e terms.     Wed Jan 21 17:20:10 2015        0.00 cpu,        0.00 elapsed
 Top of FoFMem.       Wed Jan 21 17:20:10 2015        0.00 cpu,        0.00 elapsed
 End of FoFMem.       Wed Jan 21 17:20:13 2015        2.73 cpu,        2.73 elapsed
 After 2e             Wed Jan 21 17:20:13 2015        0.00 cpu,        0.00 elapsed
 E= -2608.87761920140     Delta-E=       -0.000000000100 Rises=F Damp=F
 DIIS: error= 2.87D-08 at cycle  75 NSaved=  20.
 NSaved=20 IEnMin=15 EnMin= -2608.87761920147     IErMin=20 ErrMin= 2.87D-08
 ErrMax= 2.87D-08  0.00D+00 EMaxC= 1.00D-01 BMatC= 1.19D-13 BMatP= 1.92D-13
 IDIUse=1 WtCom= 1.00D+00 WtEn= 0.00D+00
 Coeff-Com: -0.122D-02 0.323D-02 0.822D-03 0.260D-03-0.548D-02-0.302D-02
 Coeff-Com: -0.190D-03 0.196D-01 0.805D-02-0.254D-01-0.354D-01-0.251D-01
 Coeff-Com:  0.560D-01 0.128D+00 0.598D-01-0.125D+00-0.387D+00-0.676D-01
 Coeff-Com:  0.604D+00 0.795D+00
 Coeff:     -0.122D-02 0.323D-02 0.822D-03 0.260D-03-0.548D-02-0.302D-02
 Coeff:     -0.190D-03 0.196D-01 0.805D-02-0.254D-01-0.354D-01-0.251D-01
 Coeff:      0.560D-01 0.128D+00 0.598D-01-0.125D+00-0.387D+00-0.676D-01
 Coeff:      0.604D+00 0.795D+00
 After DIIS           Wed Jan 21 17:20:13 2015        0.05 cpu,        0.05 elapsed
 Top of DgFock.       Wed Jan 21 17:20:13 2015        0.00 cpu,        0.00 elapsed
 Gap=     0.149 Goal=   None    Shift=    0.000
 End of DgFock.       Wed Jan 21 17:20:13 2015        0.08 cpu,        0.09 elapsed
 End of iteration.    Wed Jan 21 17:20:13 2015        0.00 cpu,        0.00 elapsed
 RMSDP=9.30D-09 MaxDP=2.42D-07 DE=-1.00D-10 OVMax= 0.00D+00

 Start of iteration.  Wed Jan 21 17:20:13 2015        0.00 cpu,        0.00 elapsed
 After CycOpn         Wed Jan 21 17:20:13 2015        0.00 cpu,        0.00 elapsed
 After AbSyMO         Wed Jan 21 17:20:13 2015        0.00 cpu,        0.00 elapsed
 After Virial         Wed Jan 21 17:20:13 2015        0.00 cpu,        0.00 elapsed
 SCF Done:  E(RHF) =  -2608.87761920     A.U. after   75 cycles
            NFock= 75  Conv=0.93D-08     -V/T= 1.9969
 KE= 2.616860427605D+03 PE=-2.449307401255D+04 EE= 1.007848961865D+04
 After Annil          Wed Jan 21 17:20:13 2015        0.00 cpu,        0.00 elapsed
 Before W             Wed Jan 21 17:20:13 2015        0.00 cpu,        0.00 elapsed
 After W              Wed Jan 21 17:20:13 2015        0.03 cpu,        0.02 elapsed
 Leave Link  502 at Wed Jan 21 17:20:13 2015, MaxMem=  2147483648 cpu:             281.1 elap:             281.5
 (Enter /home1/gaussian/gdv/H36/gdv/l601.exe)
 Top of link  601.    Wed Jan 21 17:20:13 2015        0.00 cpu,        0.00 elapsed
 Copying SCF densities to generalized density rwf, IOpCl= 0 IROHF=0.

 **********************************************************************

            Population analysis using the SCF density.

 **********************************************************************

 Alpha  occ. eigenvalues --  -11.11455 -11.10809 -11.10806 -11.10778 -11.10446
 Alpha  occ. eigenvalues --  -11.10048 -11.09977 -11.08962 -11.08890 -11.08869
 Alpha  occ. eigenvalues --  -11.08742 -11.08469 -11.08430 -11.08234 -11.07620
 Alpha  occ. eigenvalues --  -11.07413 -11.07111 -11.07041 -11.06976 -11.06826
 Alpha  occ. eigenvalues --  -11.06793 -11.06744 -11.06730 -11.06701 -11.06420
 Alpha  occ. eigenvalues --  -11.06335 -11.06314 -11.06215 -11.06025 -11.05915
 Alpha  occ. eigenvalues --  -11.05848 -11.05826 -11.05738 -11.05590 -11.05540
 Alpha  occ. eigenvalues --  -11.05500 -11.05473 -11.05391 -11.05268 -11.05006
 Alpha  occ. eigenvalues --  -11.04992 -11.04810 -11.04581 -11.04373 -11.04213
 Alpha  occ. eigenvalues --  -11.04151 -11.04126 -11.03952 -11.03660 -11.03458
 Alpha  occ. eigenvalues --  -11.03312 -11.03310 -11.03016 -11.02863 -11.02540
 Alpha  occ. eigenvalues --  -11.02494 -11.02324 -11.01831 -11.01678 -11.01609
 Alpha  occ. eigenvalues --  -11.01232 -11.00954 -11.00541 -11.00331 -10.99470
 Alpha  occ. eigenvalues --  -10.98347 -10.97261 -10.97224 -10.96895 -10.94923
 Alpha  occ. eigenvalues --   -1.29508  -1.27332  -1.25241  -1.24588  -1.23395
 Alpha  occ. eigenvalues --   -1.21187  -1.20412  -1.19140  -1.17072  -1.16933
 Alpha  occ. eigenvalues --   -1.15422  -1.14478  -1.12532  -1.11278  -1.10405
 Alpha  occ. eigenvalues --   -1.09390  -1.08813  -1.06712  -1.05916  -1.04881
 Alpha  occ. eigenvalues --   -1.02526  -1.01978  -1.01480  -1.00840  -0.98872
 Alpha  occ. eigenvalues --   -0.98363  -0.97111  -0.94713  -0.94058  -0.93406
 Alpha  occ. eigenvalues --   -0.92242  -0.91316  -0.90131  -0.89422  -0.89011
 Alpha  occ. eigenvalues --   -0.86753  -0.86147  -0.85667  -0.84407  -0.83312
 Alpha  occ. eigenvalues --   -0.82523  -0.81253  -0.79987  -0.78120  -0.76794
 Alpha  occ. eigenvalues --   -0.76281  -0.73228  -0.72532  -0.70517  -0.69588
 Alpha  occ. eigenvalues --   -0.69021  -0.68452  -0.67756  -0.67199  -0.66666
 Alpha  occ. eigenvalues --   -0.65617  -0.65170  -0.64615  -0.64080  -0.63623
 Alpha  occ. eigenvalues --   -0.62307  -0.62209  -0.61287  -0.60991  -0.60144
 Alpha  occ. eigenvalues --   -0.59448  -0.58573  -0.58205  -0.58050  -0.57197
 Alpha  occ. eigenvalues --   -0.56245  -0.55516  -0.55346  -0.54811  -0.53322
 Alpha  occ. eigenvalues --   -0.52590  -0.52162  -0.51198  -0.51049  -0.49934
 Alpha  occ. eigenvalues --   -0.49740  -0.48990  -0.47947  -0.47083  -0.46257
 Alpha  occ. eigenvalues --   -0.46039  -0.45717  -0.44688  -0.43986  -0.43336
 Alpha  occ. eigenvalues --   -0.42515  -0.42155  -0.41568  -0.40654  -0.40528
 Alpha  occ. eigenvalues --   -0.40044  -0.39083  -0.38899  -0.38300  -0.38037
 Alpha  occ. eigenvalues --   -0.36936  -0.36878  -0.36622  -0.36234  -0.35413
 Alpha  occ. eigenvalues --   -0.34926  -0.34609  -0.34425  -0.32703  -0.32142
 Alpha  occ. eigenvalues --   -0.31317  -0.30537  -0.30268  -0.30173  -0.28725
 Alpha  occ. eigenvalues --   -0.27993  -0.27578  -0.26978  -0.25994  -0.25737
 Alpha  occ. eigenvalues --   -0.25421  -0.25211  -0.24618  -0.23196  -0.22697
 Alpha  occ. eigenvalues --   -0.22012  -0.22000  -0.20199  -0.20153  -0.19550
 Alpha  occ. eigenvalues --   -0.17645  -0.16582  -0.15891  -0.15243  -0.14739
 Alpha  occ. eigenvalues --   -0.13866  -0.13747  -0.13477  -0.11226  -0.10754
 Alpha virt. eigenvalues --    0.04172   0.04325   0.05420   0.05969   0.06266
 Alpha virt. eigenvalues --    0.06379   0.06833   0.07716   0.09800   0.10610
 Alpha virt. eigenvalues --    0.13042   0.13399   0.13720   0.13765   0.14409
 Alpha virt. eigenvalues --    0.14755   0.15765   0.17020   0.17536   0.18843
 Alpha virt. eigenvalues --    0.20465   0.21106   0.22064   0.22101   0.22756
 Alpha virt. eigenvalues --    0.22834   0.24715   0.25433   0.25890   0.27225
 Alpha virt. eigenvalues --    0.27685   0.28218   0.28228   0.29496   0.29575
 Alpha virt. eigenvalues --    0.30826   0.30945   0.31589   0.31608   0.32202
 Alpha virt. eigenvalues --    0.34039   0.34191   0.35678   0.36233   0.36489
 Alpha virt. eigenvalues --    0.37348   0.37765   0.38698   0.38725   0.39551
 Alpha virt. eigenvalues --    0.39570   0.39626   0.41121   0.41271   0.42522
 Alpha virt. eigenvalues --    0.44989   0.45139   0.45544   0.47177   0.47617
 Alpha virt. eigenvalues --    0.48453   0.49795   0.50559   0.51228   0.52120
 Alpha virt. eigenvalues --    0.52158   0.54934   0.55562   0.56522   0.56991
 Alpha virt. eigenvalues --    0.59128   0.61292   0.61641   0.63663   0.65954
 Alpha virt. eigenvalues --    0.68266   0.69440   0.72057   0.72270   0.74402
 Alpha virt. eigenvalues --    0.76368   0.76704   0.76844   0.77383   0.77916
 Alpha virt. eigenvalues --    0.79544   0.80234   0.82167   0.83178   0.83735
 Alpha virt. eigenvalues --    0.85185   0.85804   0.86011   0.87704   0.88148
 Alpha virt. eigenvalues --    0.88895   0.89919   0.91501   0.92050   0.92744
 Alpha virt. eigenvalues --    0.92904   0.93378   0.93920   0.95088   0.95464
 Alpha virt. eigenvalues --    0.96489   0.97476   0.97724   0.98711   0.98980
 Alpha virt. eigenvalues --    0.99984   1.00158   1.01460   1.01783   1.02090
 Alpha virt. eigenvalues --    1.02625   1.03848   1.04096   1.04180   1.05667
 Alpha virt. eigenvalues --    1.06038   1.07246   1.07952   1.08420   1.09060
 Alpha virt. eigenvalues --    1.10404   1.10765   1.10997   1.12071   1.12885
 Alpha virt. eigenvalues --    1.13420   1.15331   1.15933   1.17931   1.18238
 Alpha virt. eigenvalues --    1.18617   1.20331   1.21834   1.22851   1.24645
          Condensed to atoms (all electrons):
 Mulliken charges:
               1
     1  C    0.001883
     2  C   -0.088057
     3  C    0.071864
     4  C   -0.021187
     5  C    0.070412
     6  C   -0.032825
     7  C   -0.007272
     8  C    0.094225
     9  C   -0.215711
    10  C    0.076552
    11  C   -0.069391
    12  C    0.022321
    13  C   -0.057501
    14  C    0.025108
    15  C   -0.000327
    16  C   -0.007532
    17  C    0.037064
    18  C   -0.011979
    19  C   -0.020442
    20  C   -0.018026
    21  C   -0.062527
    22  C    0.054003
    23  C    0.041740
    24  C    0.009105
    25  C   -0.016520
    26  C   -0.044074
    27  C   -0.066528
    28  C   -0.052564
    29  C   -0.011723
    30  C    0.133329
    31  C    0.084973
    32  C   -0.017605
    33  C    0.038187
    34  C    0.049321
    35  C    0.092386
    36  C    0.010761
    37  C    0.021017
    38  C   -0.061131
    39  C   -0.041307
    40  C   -0.005469
    41  C   -0.111412
    42  C   -0.094026
    43  C    0.052420
    44  C    0.104391
    45  C   -0.051684
    46  C    0.059508
    47  C   -0.033302
    48  C    0.092773
    49  C    0.077778
    50  C    0.028096
    51  C    0.060286
    52  C    0.039079
    53  C   -0.083216
    54  C   -0.056466
    55  C   -0.041983
    56  C    0.017414
    57  C    0.078456
    58  C   -0.012793
    59  C   -0.024810
    60  C    0.063691
    61  C   -0.122657
    62  C    0.120953
    63  C   -0.065885
    64  C    0.012222
    65  C   -0.021264
    66  C   -0.000914
    67  C   -0.040481
    68  C    0.014185
    69  C   -0.076040
    70  C    0.011125
 Sum of Mulliken charges =   0.00000
 Mulliken charges with hydrogens summed into heavy atoms:
               1
     1  C    0.001883
     2  C   -0.088057
     3  C    0.071864
     4  C   -0.021187
     5  C    0.070412
     6  C   -0.032825
     7  C   -0.007272
     8  C    0.094225
     9  C   -0.215711
    10  C    0.076552
    11  C   -0.069391
    12  C    0.022321
    13  C   -0.057501
    14  C    0.025108
    15  C   -0.000327
    16  C   -0.007532
    17  C    0.037064
    18  C   -0.011979
    19  C   -0.020442
    20  C   -0.018026
    21  C   -0.062527
    22  C    0.054003
    23  C    0.041740
    24  C    0.009105
    25  C   -0.016520
    26  C   -0.044074
    27  C   -0.066528
    28  C   -0.052564
    29  C   -0.011723
    30  C    0.133329
    31  C    0.084973
    32  C   -0.017605
    33  C    0.038187
    34  C    0.049321
    35  C    0.092386
    36  C    0.010761
    37  C    0.021017
    38  C   -0.061131
    39  C   -0.041307
    40  C   -0.005469
    41  C   -0.111412
    42  C   -0.094026
    43  C    0.052420
    44  C    0.104391
    45  C   -0.051684
    46  C    0.059508
    47  C   -0.033302
    48  C    0.092773
    49  C    0.077778
    50  C    0.028096
    51  C    0.060286
    52  C    0.039079
    53  C   -0.083216
    54  C   -0.056466
    55  C   -0.041983
    56  C    0.017414
    57  C    0.078456
    58  C   -0.012793
    59  C   -0.024810
    60  C    0.063691
    61  C   -0.122657
    62  C    0.120953
    63  C   -0.065885
    64  C    0.012222
    65  C   -0.021264
    66  C   -0.000914
    67  C   -0.040481
    68  C    0.014185
    69  C   -0.076040
    70  C    0.011125
 Top of OneElI        Wed Jan 21 17:20:13 2015        0.02 cpu,        0.02 elapsed
 ShPair: Thresh= 1.00D-13 NBox=     1 BxSize= 3.09D+01 RnKept= 1.72D+01
         NSMCal=                 9870 NSMKep=                4873
 After ShPair         Wed Jan 21 17:20:13 2015        0.03 cpu,        0.03 elapsed
 PrsmSu:  NPrtUS=   1 ThrOK=F IAlg=1 NPAlg=1 LenDen=           0.
 Top of Prism.        Wed Jan 21 17:20:13 2015        0.00 cpu,        0.00 elapsed
 Prism:   IPart=     0 DynPar=F LinDyn=F Incr=          48.
 End of Prism.        Wed Jan 21 17:20:13 2015        0.02 cpu,        0.02 elapsed
 PrSmSu:  NxtVal=             49.
 Bot of OneElI        Wed Jan 21 17:20:13 2015        0.00 cpu,        0.00 elapsed
 Electronic spatial extent (au):  <R**2>=         135807.8371
 Charge=              0.0000 electrons
 Dipole moment (field-independent basis, Debye):
    X=             -2.2969    Y=             -3.7223    Z=              0.0000  Tot=              4.3740
 Quadrupole moment (field-independent basis, Debye-Ang):
   XX=           -468.2082   YY=           -489.6911   ZZ=           -341.6928
   XY=            -44.8227   XZ=              0.0000   YZ=              0.0000
 Traceless Quadrupole moment (field-independent basis, Debye-Ang):
   XX=            -35.0109   YY=            -56.4937   ZZ=             91.5046
   XY=            -44.8227   XZ=              0.0000   YZ=              0.0000
 Octapole moment (field-independent basis, Debye-Ang**2):
  XXX=          -6674.1879  YYY=          -9165.3269  ZZZ=              0.0000  XYY=          -2402.5210
  XXY=          -3012.9869  XXZ=              0.0000  XZZ=          -1585.1077  YZZ=          -2128.1111
  YYZ=              0.0000  XYZ=              0.0000
 Hexadecapole moment (field-independent basis, Debye-Ang**3):
 XXXX=         -92930.5488 YYYY=        -164979.4163 ZZZZ=           -275.9654 XXXY=         -35970.6531
 XXXZ=              0.0000 YYYX=         -39122.3032 YYYZ=              0.0000 ZZZX=              0.0000
 ZZZY=              0.0000 XXYY=         -43555.4866 XXZZ=         -11108.4848 YYZZ=         -19905.0273
 XXYZ=              0.0000 YYXZ=              0.0000 ZZXY=          -8750.0045
 N-N= 9.188846347098D+03 E-N=-2.449307401401D+04  KE= 2.616860427605D+03
 Top of OneElI        Wed Jan 21 17:20:13 2015        0.00 cpu,        0.00 elapsed
 ShPair: Thresh= 1.00D-13 NBox=     1 BxSize= 2.58D+01 RnKept= 1.72D+01
         NSMCal=                 9870 NSMKep=                4184
 After ShPair         Wed Jan 21 17:20:14 2015        0.02 cpu,        0.02 elapsed
 PrsmSu:  NPrtUS=   1 ThrOK=F IAlg=1 NPAlg=1 LenDen=           0.
 Top of Prism.        Wed Jan 21 17:20:14 2015        0.00 cpu,        0.00 elapsed
 Prism:   IPart=     0 DynPar=F LinDyn=F Incr=         512.
 End of Prism.        Wed Jan 21 17:20:14 2015        0.23 cpu,        0.23 elapsed
 PrSmSu:  NxtVal=            513.
 Bot of OneElI        Wed Jan 21 17:20:14 2015        0.00 cpu,        0.00 elapsed
 No NMR shielding tensors so no spin-rotation constants.
 Leave Link  601 at Wed Jan 21 17:20:14 2015, MaxMem=  2147483648 cpu:               0.3 elap:               0.3
 (Enter /home1/gaussian/gdv/H36/gdv/l9999.exe)
 Top of link 9999.    Wed Jan 21 17:20:14 2015        0.00 cpu,        0.00 elapsed
 Unable to Open any file for archive entry.
 1\1\GINC-GPU-COMPUTE-1-33\SP\RHF\STO-3G\C70\GAUSSIAN\21-Jan-2015\0\\#p
  hf/sto-3g nosymm iop1=timestamp scf=(incore,novaracc) integral=acc2e=
 10 guess=read\\d\\0,1\C,0,0.,0.,0.\C,0,1.5,0.,0.\C,0,3.,0.,0.\C,0,4.5,
 0.,0.\C,0,6.,0.,0.\C,0,7.5,0.,0.\C,0,9.,0.,0.\C,0,10.5,0.,0.\C,0,12.,0
 .,0.\C,0,13.5,0.,0.\C,0,0.,1.5,0.\C,0,0.,3.,0.\C,0,0.,4.5,0.\C,0,0.,6.
 ,0.\C,0,0.,7.5,0.\C,0,0.,9.,0.\C,0,0.,10.5,0.\C,0,0.,12.,0.\C,0,0.,13.
 5,0.\C,0,1.5,1.5,0.\C,0,1.5,3.,0.\C,0,1.5,4.5,0.\C,0,1.5,6.,0.\C,0,1.5
 ,7.5,0.\C,0,1.5,9.,0.\C,0,1.5,10.5,0.\C,0,1.5,12.,0.\C,0,1.5,13.5,0.\C
 ,0,3.,1.5,0.\C,0,3.,3.,0.\C,0,3.,4.5,0.\C,0,3.,6.,0.\C,0,3.,7.5,0.\C,0
 ,3.,9.,0.\C,0,3.,10.5,0.\C,0,3.,12.,0.\C,0,3.,13.5,0.\C,0,4.5,1.5,0.\C
 ,0,4.5,3.,0.\C,0,4.5,4.5,0.\C,0,4.5,6.,0.\C,0,4.5,7.5,0.\C,0,4.5,9.,0.
 \C,0,4.5,10.5,0.\C,0,4.5,12.,0.\C,0,4.5,13.5,0.\C,0,6.,1.5,0.\C,0,6.,3
 .,0.\C,0,6.,4.5,0.\C,0,6.,6.,0.\C,0,6.,7.5,0.\C,0,6.,9.,0.\C,0,6.,10.5
 ,0.\C,0,6.,12.,0.\C,0,6.,13.5,0.\C,0,7.5,1.5,0.\C,0,7.5,3.,0.\C,0,7.5,
 4.5,0.\C,0,7.5,6.,0.\C,0,7.5,7.5,0.\C,0,7.5,9.,0.\C,0,7.5,10.5,0.\C,0,
 7.5,12.,0.\C,0,7.5,13.5,0.\C,0,9.,1.5,0.\C,0,9.,3.,0.\C,0,9.,4.5,0.\C,
 0,9.,6.,0.\C,0,9.,7.5,0.\C,0,9.,9.,0.\\Version=ES64L-GDVRevH.36\HF=-26
 08.8776192\RMSD=9.302e-09\Dipole=-0.9036865,-1.4644747,0.\Quadrupole=-
 26.0297133,-42.0016908,68.0314041,-33.3245901,0.,0.\PG=CS [SG(C70)]\\@
 The archive entry for this job was punched.


 REALITY IS FOR PEOPLE WHO CAN'T FACE SCIENCE FICTION.
 Job cpu time:       0 days  0 hours  4 minutes 43.1 seconds.
 Elapsed time:       0 days  0 hours  4 minutes 43.3 seconds.
 File lengths (MBytes):  RWF=     49 Int=      0 D2E=      0 Chk=      8 Scr=      1
 Normal termination of Gaussian DV at Wed Jan 21 17:20:14 2015.
