 Entering Gaussian System, Link 0=gdv
 Input=3.com
 Output=3.log
 Initial command:
 /home/gauss/gdv/l1.exe /home/xsli/TestCode/Gau-31229.inp -scrdir=/home/xsli/TestCode/
 Entering Link 1 = /home/gauss/gdv/l1.exe PID=     31230.
  
 Copyright (c) 1988,1990,1992,1993,1995,1998,2003,2004, Gaussian, Inc.
                  All Rights Reserved.
  
 This is the private, development version of the
 the Gaussian(R) DV system of programs. It is based on
 the Gaussian(R) 03 system (copyright 2003, Gaussian, Inc.),
 the Gaussian(R) 98 system (copyright 1998, Gaussian, Inc.),
 the Gaussian(R) 94 system (copyright 1995, Gaussian, Inc.),
 the Gaussian 92(TM) system (copyright 1992, Gaussian, Inc.),
 the Gaussian 90(TM) system (copyright 1990, Gaussian, Inc.),
 the Gaussian 88(TM) system (copyright 1988, Gaussian, Inc.),
 the Gaussian 86(TM) system (copyright 1986, Carnegie Mellon
 University), and the Gaussian 82(TM) system (copyright 1983,
 Carnegie Mellon University). Gaussian is a federally registered
 trademark of Gaussian, Inc.
  
 This software contains proprietary and confidential information,
 including trade secrets, belonging to Gaussian, Inc.
  
 This software is provided under written license and may be
 used, copied, transmitted, or stored only in accord with that
 written license.
  
 The following legend is applicable only to US Government
 contracts under FAR:
  
                    RESTRICTED RIGHTS LEGEND
  
 Use, reproduction and disclosure by the US Government is
 subject to restrictions as set forth in subparagraphs (a)
 and (c) of the Commercial Computer Software - Restricted
 Rights clause in FAR 52.227-19.
  
 Gaussian, Inc.
 340 Quinnipiac St., Bldg. 40, Wallingford CT 06492
  
  
 ---------------------------------------------------------------
 Warning -- This program may not be used in any manner that
 competes with the business of Gaussian, Inc. or will provide
 assistance to any competitor of Gaussian, Inc.  The licensee
 of this program is prohibited from giving any competitor of
 Gaussian, Inc. access to this program.  By using this program,
 the user acknowledges that Gaussian, Inc. is engaged in the
 business of creating and licensing software in the field of
 computational chemistry and represents and warrants to the
 licensee that it is not a competitor of Gaussian, Inc. and that
 it will not use this program in any manner prohibited above.
 ---------------------------------------------------------------
  

 Cite this work as:
 Gaussian Development Version, Revision D.02,
 M. J. Frisch, G. W. Trucks, H. B. Schlegel, G. E. Scuseria, 
 M. A. Robb, J. R. Cheeseman, J. A. Montgomery, Jr., T. Vreven, 
 K. N. Kudin, J. C. Burant, J. M. Millam, S. S. Iyengar, J. Tomasi, 
 V. Barone, B. Mennucci, M. Cossi, G. Scalmani, N. Rega, 
 G. A. Petersson, H. Nakatsuji, M. Hada, M. Ehara, K. Toyota, 
 R. Fukuda, J. Hasegawa, M. Ishida, T. Nakajima, Y. Honda, O. Kitao, 
 H. Nakai, M. Klene, X. Li, J. E. Knox, H. P. Hratchian, J. B. Cross, 
 V. Bakken, C. Adamo, J. Jaramillo, R. Gomperts, R. E. Stratmann, 
 O. Yazyev, A. J. Austin, R. Cammi, C. Pomelli, J. W. Ochterski, 
 P. Y. Ayala, K. Morokuma, G. A. Voth, P. Salvador, J. J. Dannenberg, 
 V. G. Zakrzewski, S. Dapprich, A. D. Daniels, M. C. Strain, 
 O. Farkas, D. K. Malick, A. D. Rabuck, K. Raghavachari, 
 J. B. Foresman, J. V. Ortiz, Q. Cui, A. G. Baboul, S. Clifford, 
 J. Cioslowski, B. B. Stefanov, G. Liu, A. Liashenko, P. Piskorz, 
 I. Komaromi, R. L. Martin, D. J. Fox, T. Keith, M. A. Al-Laham, 
 C. Y. Peng, A. Nanayakkara, M. Challacombe, P. M. W. Gill, 
 B. Johnson, W. Chen, M. W. Wong, C. Gonzalez, and J. A. Pople, 
 Gaussian, Inc., Wallingford CT, 2004.
 
 ******************************************
 Gaussian DV:  AM64L-GDVRevD.02 12-Jun-2005
                15-May-2006 
 ******************************************
 %kjob l303
 kjob at link  303 occurance number     1
 %mem=1000mb
 %subst l302 .
 --------------------------------------
 #p hf/sto-3g nosymm 6d iop(3/1=123456)
 --------------------------------------
 1/38=1/1;
 2/15=1,17=6,18=5,40=1/2;
 3/1=123456,6=3,8=2,11=9,16=1,25=1,30=1/1,2,3;
 4//1;
 5/5=2,32=1,38=5/2;
 6/7=2,8=2,9=2,10=2,28=1/1;
 99/5=1,9=1/99;
 Leave Link    1 at Mon May 15 09:14:46 2006, MaxMem=  131072000 cpu:       0.4
 (Enter /home/gauss/gdv/l101.exe)
 -
 d
 -
 Symbolic Z-matrix:
 Charge =  0 Multiplicity = 1
 C                     0.        0.        0. 
 C                     1.5       0.        0. 
 C                     3.        0.        0. 
 C                     4.5       0.        0. 
 C                     6.        0.        0. 
 C                     7.5       0.        0. 
 C                     9.        0.        0. 
 C                     10.5      0.        0. 
 C                     12.       0.        0. 
 C                     13.5      0.        0. 
 C                     0.        1.5       0. 
 C                     0.        3.        0. 
 C                     0.        4.5       0. 
 C                     0.        6.        0. 
 C                     0.        7.5       0. 
 C                     0.        9.        0. 
 C                     0.        10.5      0. 
 C                     0.        12.       0. 
 C                     0.        13.5      0. 
 C                     1.5       1.5       0. 
 C                     1.5       3.        0. 
 C                     1.5       4.5       0. 
 C                     1.5       6.        0. 
 C                     1.5       7.5       0. 
 C                     1.5       9.        0. 
 C                     1.5       10.5      0. 
 C                     1.5       12.       0. 
 C                     1.5       13.5      0. 
 C                     3.        1.5       0. 
 C                     3.        3.        0. 
 C                     3.        4.5       0. 
 C                     3.        6.        0. 
 C                     3.        7.5       0. 
 C                     3.        9.        0. 
 C                     3.        10.5      0. 
 C                     3.        12.       0. 
 C                     3.        13.5      0. 
 C                     4.5       1.5       0. 
 C                     4.5       3.        0. 
 C                     4.5       4.5       0. 
 C                     4.5       6.        0. 
 C                     4.5       7.5       0. 
 C                     4.5       9.        0. 
 C                     4.5       10.5      0. 
 C                     4.5       12.       0. 
 C                     4.5       13.5      0. 
 C                     6.        1.5       0. 
 C                     6.        3.        0. 
 C                     6.        4.5       0. 
 C                     6.        6.        0. 
 C                     6.        7.5       0. 
 C                     6.        9.        0. 
 C                     6.        10.5      0. 
 C                     6.        12.       0. 
 C                     6.        13.5      0. 
 C                     7.5       1.5       0. 
 C                     7.5       3.        0. 
 C                     7.5       4.5       0. 
 C                     7.5       6.        0. 
 C                     7.5       7.5       0. 
 C                     7.5       9.        0. 
 C                     7.5       10.5      0. 
 C                     7.5       12.       0. 
 C                     7.5       13.5      0. 
 C                     9.        1.5       0. 
 C                     9.        3.        0. 
 C                     9.        4.5       0. 
 C                     9.        6.        0. 
 C                     9.        7.5       0. 
 C                     9.        9.        0. 
 C                     9.        10.5      0. 
 C                     9.        12.       0. 
 C                     9.        13.5      0. 
 C                     10.5      1.5       0. 
 C                     10.5      3.        0. 
 C                     10.5      4.5       0. 
 C                     10.5      6.        0. 
 C                     10.5      7.5       0. 
 C                     10.5      9.        0. 
 C                     10.5      10.5      0. 
 C                     10.5      12.       0. 
 C                     10.5      13.5      0. 
 C                     12.       1.5       0. 
 C                     12.       3.        0. 
 C                     12.       4.5       0. 
 C                     12.       6.        0. 
 C                     12.       7.5       0. 
 C                     12.       9.        0. 
 C                     12.       10.5      0. 
 C                     12.       12.       0. 
 C                     12.       13.5      0. 
 C                     13.5      1.5       0. 
 C                     13.5      3.        0. 
 C                     13.5      4.5       0. 
 C                     13.5      6.        0. 
 C                     13.5      7.5       0. 
 C                     13.5      9.        0. 
 C                     13.5      10.5      0. 
 C                     13.5      12.       0. 
 C                     13.5      13.5      0. 
 C                     0.        0.        1.5 
 C                     0.        0.        3. 
 C                     0.        0.        4.5 
 C                     0.        0.        6. 
 C                     0.        0.        7.5 
 C                     0.        0.        9. 
 C                     0.        0.        10.5 
 C                     0.        0.        12. 
 C                     0.        0.        13.5 
 C                     1.5       0.        1.5 
 C                     1.5       0.        3. 
 C                     1.5       0.        4.5 
 C                     1.5       0.        6. 
 C                     1.5       0.        7.5 
 C                     1.5       0.        9. 
 C                     1.5       0.        10.5 
 C                     1.5       0.        12. 
 C                     1.5       0.        13.5 
 C                     3.        0.        1.5 
 C                     3.        0.        3. 
 C                     3.        0.        4.5 
 C                     3.        0.        6. 
 C                     3.        0.        7.5 
 C                     3.        0.        9. 
 C                     3.        0.        10.5 
 C                     3.        0.        12. 
 C                     3.        0.        13.5 
 C                     4.5       0.        1.5 
 C                     4.5       0.        3. 
 C                     4.5       0.        4.5 
 C                     4.5       0.        6. 
 C                     4.5       0.        7.5 
 C                     4.5       0.        9. 
 C                     4.5       0.        10.5 
 C                     4.5       0.        12. 
 C                     4.5       0.        13.5 
 C                     6.        0.        1.5 
 C                     6.        0.        3. 
 C                     6.        0.        4.5 
 C                     6.        0.        6. 
 C                     6.        0.        7.5 
 C                     6.        0.        9. 
 C                     6.        0.        10.5 
 C                     6.        0.        12. 
 C                     6.        0.        13.5 
 C                     7.5       0.        1.5 
 C                     7.5       0.        3. 
 C                     7.5       0.        4.5 
 C                     7.5       0.        6. 
 C                     7.5       0.        7.5 
 C                     7.5       0.        9. 
 C                     7.5       0.        10.5 
 C                     7.5       0.        12. 
 C                     7.5       0.        13.5 
 C                     9.        0.        1.5 
 C                     9.        0.        3. 
 C                     9.        0.        4.5 
 C                     9.        0.        6. 
 C                     9.        0.        7.5 
 C                     9.        0.        9. 
 C                     9.        0.        10.5 
 C                     9.        0.        12. 
 C                     9.        0.        13.5 
 C                     10.5      0.        1.5 
 C                     10.5      0.        3. 
 C                     10.5      0.        4.5 
 C                     10.5      0.        6. 
 C                     10.5      0.        7.5 
 C                     10.5      0.        9. 
 C                     10.5      0.        10.5 
 C                     10.5      0.        12. 
 C                     10.5      0.        13.5 
 C                     12.       0.        1.5 
 C                     12.       0.        3. 
 C                     12.       0.        4.5 
 C                     12.       0.        6. 
 C                     12.       0.        7.5 
 C                     12.       0.        9. 
 C                     12.       0.        10.5 
 C                     12.       0.        12. 
 C                     12.       0.        13.5 
 C                     13.5      0.        1.5 
 C                     13.5      0.        3. 
 C                     13.5      0.        4.5 
 C                     13.5      0.        6. 
 C                     13.5      0.        7.5 
 C                     13.5      0.        9. 
 C                     13.5      0.        10.5 
 C                     13.5      0.        12. 
 C                     13.5      0.        13.5 
 C                     0.        1.5       1.5 
 C                     0.        1.5       3. 
 C                     0.        1.5       4.5 
 C                     0.        1.5       6. 
 C                     0.        1.5       7.5 
 C                     0.        1.5       9. 
 C                     0.        1.5       10.5 
 C                     0.        1.5       12. 
 C                     0.        1.5       13.5 
 C                     0.        3.        1.5 
 C                     0.        3.        3. 
 C                     0.        3.        4.5 
 C                     0.        3.        6. 
 C                     0.        3.        7.5 
 C                     0.        3.        9. 
 C                     0.        3.        10.5 
 C                     0.        3.        12. 
 C                     0.        3.        13.5 
 C                     0.        4.5       1.5 
 C                     0.        4.5       3. 
 C                     0.        4.5       4.5 
 C                     0.        4.5       6. 
 C                     0.        4.5       7.5 
 C                     0.        4.5       9. 
 C                     0.        4.5       10.5 
 C                     0.        4.5       12. 
 C                     0.        4.5       13.5 
 C                     0.        6.        1.5 
 C                     0.        6.        3. 
 C                     0.        6.        4.5 
 C                     0.        6.        6. 
 C                     0.        6.        7.5 
 C                     0.        6.        9. 
 C                     0.        6.        10.5 
 C                     0.        6.        12. 
 C                     0.        6.        13.5 
 C                     0.        7.5       1.5 
 C                     0.        7.5       3. 
 C                     0.        7.5       4.5 
 C                     0.        7.5       6. 
 C                     0.        7.5       7.5 
 C                     0.        7.5       9. 
 C                     0.        7.5       10.5 
 C                     0.        7.5       12. 
 C                     0.        7.5       13.5 
 C                     0.        9.        1.5 
 C                     0.        9.        3. 
 C                     0.        9.        4.5 
 C                     0.        9.        6. 
 C                     0.        9.        7.5 
 C                     0.        9.        9. 
 C                     0.        9.        10.5 
 C                     0.        9.        12. 
 C                     0.        9.        13.5 
 C                     0.        10.5      1.5 
 C                     0.        10.5      3. 
 C                     0.        10.5      4.5 
 C                     0.        10.5      6. 
 C                     0.        10.5      7.5 
 C                     0.        10.5      9. 
 C                     0.        10.5      10.5 
 C                     0.        10.5      12. 
 C                     0.        10.5      13.5 
 C                     0.        12.       1.5 
 C                     0.        12.       3. 
 C                     0.        12.       4.5 
 C                     0.        12.       6. 
 C                     0.        12.       7.5 
 C                     0.        12.       9. 
 C                     0.        12.       10.5 
 C                     0.        12.       12. 
 C                     0.        12.       13.5 
 C                     0.        13.5      1.5 
 C                     0.        13.5      3. 
 C                     0.        13.5      4.5 
 C                     0.        13.5      6. 
 C                     0.        13.5      7.5 
 C                     0.        13.5      9. 
 C                     0.        13.5      10.5 
 C                     0.        13.5      12. 
 C                     0.        13.5      13.5 
 C                     1.5       1.5       1.5 
 C                     1.5       1.5       3. 
 C                     1.5       1.5       4.5 
 C                     1.5       1.5       6. 
 C                     1.5       1.5       7.5 
 C                     1.5       1.5       9. 
 C                     1.5       1.5       10.5 
 C                     1.5       1.5       12. 
 C                     1.5       1.5       13.5 
 C                     1.5       3.        1.5 
 C                     1.5       3.        3. 
 C                     1.5       3.        4.5 
 C                     1.5       3.        6. 
 C                     1.5       3.        7.5 
 C                     1.5       3.        9. 
 C                     1.5       3.        10.5 
 C                     1.5       3.        12. 
 C                     1.5       3.        13.5 
 C                     1.5       4.5       1.5 
 C                     1.5       4.5       3. 
 C                     1.5       4.5       4.5 
 C                     1.5       4.5       6. 
 C                     1.5       4.5       7.5 
 C                     1.5       4.5       9. 
 C                     1.5       4.5       10.5 
 C                     1.5       4.5       12. 
 C                     1.5       4.5       13.5 
 C                     1.5       6.        1.5 
 C                     1.5       6.        3. 
 C                     1.5       6.        4.5 
 C                     1.5       6.        6. 
 C                     1.5       6.        7.5 
 C                     1.5       6.        9. 
 C                     1.5       6.        10.5 
 C                     1.5       6.        12. 
 C                     1.5       6.        13.5 
 C                     1.5       7.5       1.5 
 C                     1.5       7.5       3. 
 C                     1.5       7.5       4.5 
 C                     1.5       7.5       6. 
 C                     1.5       7.5       7.5 
 C                     1.5       7.5       9. 
 C                     1.5       7.5       10.5 
 C                     1.5       7.5       12. 
 C                     1.5       7.5       13.5 
 C                     1.5       9.        1.5 
 C                     1.5       9.        3. 
 C                     1.5       9.        4.5 
 C                     1.5       9.        6. 
 C                     1.5       9.        7.5 
 C                     1.5       9.        9. 
 C                     1.5       9.        10.5 
 C                     1.5       9.        12. 
 C                     1.5       9.        13.5 
 C                     1.5       10.5      1.5 
 C                     1.5       10.5      3. 
 C                     1.5       10.5      4.5 
 C                     1.5       10.5      6. 
 C                     1.5       10.5      7.5 
 C                     1.5       10.5      9. 
 C                     1.5       10.5      10.5 
 C                     1.5       10.5      12. 
 C                     1.5       10.5      13.5 
 C                     1.5       12.       1.5 
 C                     1.5       12.       3. 
 C                     1.5       12.       4.5 
 C                     1.5       12.       6. 
 C                     1.5       12.       7.5 
 C                     1.5       12.       9. 
 C                     1.5       12.       10.5 
 C                     1.5       12.       12. 
 C                     1.5       12.       13.5 
 C                     1.5       13.5      1.5 
 C                     1.5       13.5      3. 
 C                     1.5       13.5      4.5 
 C                     1.5       13.5      6. 
 C                     1.5       13.5      7.5 
 C                     1.5       13.5      9. 
 C                     1.5       13.5      10.5 
 C                     1.5       13.5      12. 
 C                     1.5       13.5      13.5 
 C                     3.        1.5       1.5 
 C                     3.        1.5       3. 
 C                     3.        1.5       4.5 
 C                     3.        1.5       6. 
 C                     3.        1.5       7.5 
 C                     3.        1.5       9. 
 C                     3.        1.5       10.5 
 C                     3.        1.5       12. 
 C                     3.        1.5       13.5 
 C                     3.        3.        1.5 
 C                     3.        3.        3. 
 C                     3.        3.        4.5 
 C                     3.        3.        6. 
 C                     3.        3.        7.5 
 C                     3.        3.        9. 
 C                     3.        3.        10.5 
 C                     3.        3.        12. 
 C                     3.        3.        13.5 
 C                     3.        4.5       1.5 
 C                     3.        4.5       3. 
 C                     3.        4.5       4.5 
 C                     3.        4.5       6. 
 C                     3.        4.5       7.5 
 C                     3.        4.5       9. 
 C                     3.        4.5       10.5 
 C                     3.        4.5       12. 
 C                     3.        4.5       13.5 
 C                     3.        6.        1.5 
 C                     3.        6.        3. 
 C                     3.        6.        4.5 
 C                     3.        6.        6. 
 C                     3.        6.        7.5 
 C                     3.        6.        9. 
 C                     3.        6.        10.5 
 C                     3.        6.        12. 
 C                     3.        6.        13.5 
 C                     3.        7.5       1.5 
 C                     3.        7.5       3. 
 C                     3.        7.5       4.5 
 C                     3.        7.5       6. 
 C                     3.        7.5       7.5 
 C                     3.        7.5       9. 
 C                     3.        7.5       10.5 
 C                     3.        7.5       12. 
 C                     3.        7.5       13.5 
 C                     3.        9.        1.5 
 C                     3.        9.        3. 
 C                     3.        9.        4.5 
 C                     3.        9.        6. 
 C                     3.        9.        7.5 
 C                     3.        9.        9. 
 C                     3.        9.        10.5 
 C                     3.        9.        12. 
 C                     3.        9.        13.5 
 C                     3.        10.5      1.5 
 C                     3.        10.5      3. 
 C                     3.        10.5      4.5 
 C                     3.        10.5      6. 
 C                     3.        10.5      7.5 
 C                     3.        10.5      9. 
 C                     3.        10.5      10.5 
 C                     3.        10.5      12. 
 C                     3.        10.5      13.5 
 C                     3.        12.       1.5 
 C                     3.        12.       3. 
 C                     3.        12.       4.5 
 C                     3.        12.       6. 
 C                     3.        12.       7.5 
 C                     3.        12.       9. 
 C                     3.        12.       10.5 
 C                     3.        12.       12. 
 C                     3.        12.       13.5 
 C                     3.        13.5      1.5 
 C                     3.        13.5      3. 
 C                     3.        13.5      4.5 
 C                     3.        13.5      6. 
 C                     3.        13.5      7.5 
 C                     3.        13.5      9. 
 C                     3.        13.5      10.5 
 C                     3.        13.5      12. 
 C                     3.        13.5      13.5 
 C                     4.5       1.5       1.5 
 C                     4.5       1.5       3. 
 C                     4.5       1.5       4.5 
 C                     4.5       1.5       6. 
 C                     4.5       1.5       7.5 
 C                     4.5       1.5       9. 
 C                     4.5       1.5       10.5 
 C                     4.5       1.5       12. 
 C                     4.5       1.5       13.5 
 C                     4.5       3.        1.5 
 C                     4.5       3.        3. 
 C                     4.5       3.        4.5 
 C                     4.5       3.        6. 
 C                     4.5       3.        7.5 
 C                     4.5       3.        9. 
 C                     4.5       3.        10.5 
 C                     4.5       3.        12. 
 C                     4.5       3.        13.5 
 C                     4.5       4.5       1.5 
 C                     4.5       4.5       3. 
 C                     4.5       4.5       4.5 
 C                     4.5       4.5       6. 
 C                     4.5       4.5       7.5 
 C                     4.5       4.5       9. 
 C                     4.5       4.5       10.5 
 C                     4.5       4.5       12. 
 C                     4.5       4.5       13.5 
 C                     4.5       6.        1.5 
 C                     4.5       6.        3. 
 C                     4.5       6.        4.5 
 C                     4.5       6.        6. 
 C                     4.5       6.        7.5 
 C                     4.5       6.        9. 
 C                     4.5       6.        10.5 
 C                     4.5       6.        12. 
 C                     4.5       6.        13.5 
 C                     4.5       7.5       1.5 
 C                     4.5       7.5       3. 
 C                     4.5       7.5       4.5 
 C                     4.5       7.5       6. 
 C                     4.5       7.5       7.5 
 C                     4.5       7.5       9. 
 C                     4.5       7.5       10.5 
 C                     4.5       7.5       12. 
 C                     4.5       7.5       13.5 
 C                     4.5       9.        1.5 
 C                     4.5       9.        3. 
 C                     4.5       9.        4.5 
 C                     4.5       9.        6. 
 C                     4.5       9.        7.5 
 C                     4.5       9.        9. 
 C                     4.5       9.        10.5 
 C                     4.5       9.        12. 
 C                     4.5       9.        13.5 
 C                     4.5       10.5      1.5 
 C                     4.5       10.5      3. 
 C                     4.5       10.5      4.5 
 C                     4.5       10.5      6. 
 C                     4.5       10.5      7.5 
 C                     4.5       10.5      9. 
 C                     4.5       10.5      10.5 
 C                     4.5       10.5      12. 
 C                     4.5       10.5      13.5 
 C                     4.5       12.       1.5 
 C                     4.5       12.       3. 
 C                     4.5       12.       4.5 
 C                     4.5       12.       6. 
 
                    Isotopes and Nuclear Properties:
 (Nuclear quadrupole moments (NQMom) in fm**2, nuclear magnetic moments (NMagM)
  in nuclear magnetons)

  Atom         1           2           3           4           5           6           7           8           9          10
 IAtWgt=          12          12          12          12          12          12          12          12          12          12
 AtmWgt=  12.0000000  12.0000000  12.0000000  12.0000000  12.0000000  12.0000000  12.0000000  12.0000000  12.0000000  12.0000000
 NucSpn=           0           0           0           0           0           0           0           0           0           0
 AtZEff=   0.0000000   0.0000000   0.0000000   0.0000000   0.0000000   0.0000000   0.0000000   0.0000000   0.0000000   0.0000000
 NQMom=    0.0000000   0.0000000   0.0000000   0.0000000   0.0000000   0.0000000   0.0000000   0.0000000   0.0000000   0.0000000
 NMagM=    0.0000000   0.0000000   0.0000000   0.0000000   0.0000000   0.0000000   0.0000000   0.0000000   0.0000000   0.0000000

  Atom        11          12          13          14          15          16          17          18          19          20
 IAtWgt=          12          12          12          12          12          12          12          12          12          12
 AtmWgt=  12.0000000  12.0000000  12.0000000  12.0000000  12.0000000  12.0000000  12.0000000  12.0000000  12.0000000  12.0000000
 NucSpn=           0           0           0           0           0           0           0           0           0           0
 AtZEff=   0.0000000   0.0000000   0.0000000   0.0000000   0.0000000   0.0000000   0.0000000   0.0000000   0.0000000   0.0000000
 NQMom=    0.0000000   0.0000000   0.0000000   0.0000000   0.0000000   0.0000000   0.0000000   0.0000000   0.0000000   0.0000000
 NMagM=    0.0000000   0.0000000   0.0000000   0.0000000   0.0000000   0.0000000   0.0000000   0.0000000   0.0000000   0.0000000

  Atom        21          22          23          24          25          26          27          28          29          30
 IAtWgt=          12          12          12          12          12          12          12          12          12          12
 AtmWgt=  12.0000000  12.0000000  12.0000000  12.0000000  12.0000000  12.0000000  12.0000000  12.0000000  12.0000000  12.0000000
 NucSpn=           0           0           0           0           0           0           0           0           0           0
 AtZEff=   0.0000000   0.0000000   0.0000000   0.0000000   0.0000000   0.0000000   0.0000000   0.0000000   0.0000000   0.0000000
 NQMom=    0.0000000   0.0000000   0.0000000   0.0000000   0.0000000   0.0000000   0.0000000   0.0000000   0.0000000   0.0000000
 NMagM=    0.0000000   0.0000000   0.0000000   0.0000000   0.0000000   0.0000000   0.0000000   0.0000000   0.0000000   0.0000000

  Atom        31          32          33          34          35          36          37          38          39          40
 IAtWgt=          12          12          12          12          12          12          12          12          12          12
 AtmWgt=  12.0000000  12.0000000  12.0000000  12.0000000  12.0000000  12.0000000  12.0000000  12.0000000  12.0000000  12.0000000
 NucSpn=           0           0           0           0           0           0           0           0           0           0
 AtZEff=   0.0000000   0.0000000   0.0000000   0.0000000   0.0000000   0.0000000   0.0000000   0.0000000   0.0000000   0.0000000
 NQMom=    0.0000000   0.0000000   0.0000000   0.0000000   0.0000000   0.0000000   0.0000000   0.0000000   0.0000000   0.0000000
 NMagM=    0.0000000   0.0000000   0.0000000   0.0000000   0.0000000   0.0000000   0.0000000   0.0000000   0.0000000   0.0000000

  Atom        41          42          43          44          45          46          47          48          49          50
 IAtWgt=          12          12          12          12          12          12          12          12          12          12
 AtmWgt=  12.0000000  12.0000000  12.0000000  12.0000000  12.0000000  12.0000000  12.0000000  12.0000000  12.0000000  12.0000000
 NucSpn=           0           0           0           0           0           0           0           0           0           0
 AtZEff=   0.0000000   0.0000000   0.0000000   0.0000000   0.0000000   0.0000000   0.0000000   0.0000000   0.0000000   0.0000000
 NQMom=    0.0000000   0.0000000   0.0000000   0.0000000   0.0000000   0.0000000   0.0000000   0.0000000   0.0000000   0.0000000
 NMagM=    0.0000000   0.0000000   0.0000000   0.0000000   0.0000000   0.0000000   0.0000000   0.0000000   0.0000000   0.0000000

  Atom        51          52          53          54          55          56          57          58          59          60
 IAtWgt=          12          12          12          12          12          12          12          12          12          12
 AtmWgt=  12.0000000  12.0000000  12.0000000  12.0000000  12.0000000  12.0000000  12.0000000  12.0000000  12.0000000  12.0000000
 NucSpn=           0           0           0           0           0           0           0           0           0           0
 AtZEff=   0.0000000   0.0000000   0.0000000   0.0000000   0.0000000   0.0000000   0.0000000   0.0000000   0.0000000   0.0000000
 NQMom=    0.0000000   0.0000000   0.0000000   0.0000000   0.0000000   0.0000000   0.0000000   0.0000000   0.0000000   0.0000000
 NMagM=    0.0000000   0.0000000   0.0000000   0.0000000   0.0000000   0.0000000   0.0000000   0.0000000   0.0000000   0.0000000

  Atom        61          62          63          64          65          66          67          68          69          70
 IAtWgt=          12          12          12          12          12          12          12          12          12          12
 AtmWgt=  12.0000000  12.0000000  12.0000000  12.0000000  12.0000000  12.0000000  12.0000000  12.0000000  12.0000000  12.0000000
 NucSpn=           0           0           0           0           0           0           0           0           0           0
 AtZEff=   0.0000000   0.0000000   0.0000000   0.0000000   0.0000000   0.0000000   0.0000000   0.0000000   0.0000000   0.0000000
 NQMom=    0.0000000   0.0000000   0.0000000   0.0000000   0.0000000   0.0000000   0.0000000   0.0000000   0.0000000   0.0000000
 NMagM=    0.0000000   0.0000000   0.0000000   0.0000000   0.0000000   0.0000000   0.0000000   0.0000000   0.0000000   0.0000000

  Atom        71          72          73          74          75          76          77          78          79          80
 IAtWgt=          12          12          12          12          12          12          12          12          12          12
 AtmWgt=  12.0000000  12.0000000  12.0000000  12.0000000  12.0000000  12.0000000  12.0000000  12.0000000  12.0000000  12.0000000
 NucSpn=           0           0           0           0           0           0           0           0           0           0
 AtZEff=   0.0000000   0.0000000   0.0000000   0.0000000   0.0000000   0.0000000   0.0000000   0.0000000   0.0000000   0.0000000
 NQMom=    0.0000000   0.0000000   0.0000000   0.0000000   0.0000000   0.0000000   0.0000000   0.0000000   0.0000000   0.0000000
 NMagM=    0.0000000   0.0000000   0.0000000   0.0000000   0.0000000   0.0000000   0.0000000   0.0000000   0.0000000   0.0000000

  Atom        81          82          83          84          85          86          87          88          89          90
 IAtWgt=          12          12          12          12          12          12          12          12          12          12
 AtmWgt=  12.0000000  12.0000000  12.0000000  12.0000000  12.0000000  12.0000000  12.0000000  12.0000000  12.0000000  12.0000000
 NucSpn=           0           0           0           0           0           0           0           0           0           0
 AtZEff=   0.0000000   0.0000000   0.0000000   0.0000000   0.0000000   0.0000000   0.0000000   0.0000000   0.0000000   0.0000000
 NQMom=    0.0000000   0.0000000   0.0000000   0.0000000   0.0000000   0.0000000   0.0000000   0.0000000   0.0000000   0.0000000
 NMagM=    0.0000000   0.0000000   0.0000000   0.0000000   0.0000000   0.0000000   0.0000000   0.0000000   0.0000000   0.0000000

  Atom        91          92          93          94          95          96          97          98          99         100
 IAtWgt=          12          12          12          12          12          12          12          12          12          12
 AtmWgt=  12.0000000  12.0000000  12.0000000  12.0000000  12.0000000  12.0000000  12.0000000  12.0000000  12.0000000  12.0000000
 NucSpn=           0           0           0           0           0           0           0           0           0           0
 AtZEff=   0.0000000   0.0000000   0.0000000   0.0000000   0.0000000   0.0000000   0.0000000   0.0000000   0.0000000   0.0000000
 NQMom=    0.0000000   0.0000000   0.0000000   0.0000000   0.0000000   0.0000000   0.0000000   0.0000000   0.0000000   0.0000000
 NMagM=    0.0000000   0.0000000   0.0000000   0.0000000   0.0000000   0.0000000   0.0000000   0.0000000   0.0000000   0.0000000

  Atom       101         102         103         104         105         106         107         108         109         110
 IAtWgt=          12          12          12          12          12          12          12          12          12          12
 AtmWgt=  12.0000000  12.0000000  12.0000000  12.0000000  12.0000000  12.0000000  12.0000000  12.0000000  12.0000000  12.0000000
 NucSpn=           0           0           0           0           0           0           0           0           0           0
 AtZEff=   0.0000000   0.0000000   0.0000000   0.0000000   0.0000000   0.0000000   0.0000000   0.0000000   0.0000000   0.0000000
 NQMom=    0.0000000   0.0000000   0.0000000   0.0000000   0.0000000   0.0000000   0.0000000   0.0000000   0.0000000   0.0000000
 NMagM=    0.0000000   0.0000000   0.0000000   0.0000000   0.0000000   0.0000000   0.0000000   0.0000000   0.0000000   0.0000000

  Atom       111         112         113         114         115         116         117         118         119         120
 IAtWgt=          12          12          12          12          12          12          12          12          12          12
 AtmWgt=  12.0000000  12.0000000  12.0000000  12.0000000  12.0000000  12.0000000  12.0000000  12.0000000  12.0000000  12.0000000
 NucSpn=           0           0           0           0           0           0           0           0           0           0
 AtZEff=   0.0000000   0.0000000   0.0000000   0.0000000   0.0000000   0.0000000   0.0000000   0.0000000   0.0000000   0.0000000
 NQMom=    0.0000000   0.0000000   0.0000000   0.0000000   0.0000000   0.0000000   0.0000000   0.0000000   0.0000000   0.0000000
 NMagM=    0.0000000   0.0000000   0.0000000   0.0000000   0.0000000   0.0000000   0.0000000   0.0000000   0.0000000   0.0000000

  Atom       121         122         123         124         125         126         127         128         129         130
 IAtWgt=          12          12          12          12          12          12          12          12          12          12
 AtmWgt=  12.0000000  12.0000000  12.0000000  12.0000000  12.0000000  12.0000000  12.0000000  12.0000000  12.0000000  12.0000000
 NucSpn=           0           0           0           0           0           0           0           0           0           0
 AtZEff=   0.0000000   0.0000000   0.0000000   0.0000000   0.0000000   0.0000000   0.0000000   0.0000000   0.0000000   0.0000000
 NQMom=    0.0000000   0.0000000   0.0000000   0.0000000   0.0000000   0.0000000   0.0000000   0.0000000   0.0000000   0.0000000
 NMagM=    0.0000000   0.0000000   0.0000000   0.0000000   0.0000000   0.0000000   0.0000000   0.0000000   0.0000000   0.0000000

  Atom       131         132         133         134         135         136         137         138         139         140
 IAtWgt=          12          12          12          12          12          12          12          12          12          12
 AtmWgt=  12.0000000  12.0000000  12.0000000  12.0000000  12.0000000  12.0000000  12.0000000  12.0000000  12.0000000  12.0000000
 NucSpn=           0           0           0           0           0           0           0           0           0           0
 AtZEff=   0.0000000   0.0000000   0.0000000   0.0000000   0.0000000   0.0000000   0.0000000   0.0000000   0.0000000   0.0000000
 NQMom=    0.0000000   0.0000000   0.0000000   0.0000000   0.0000000   0.0000000   0.0000000   0.0000000   0.0000000   0.0000000
 NMagM=    0.0000000   0.0000000   0.0000000   0.0000000   0.0000000   0.0000000   0.0000000   0.0000000   0.0000000   0.0000000

  Atom       141         142         143         144         145         146         147         148         149         150
 IAtWgt=          12          12          12          12          12          12          12          12          12          12
 AtmWgt=  12.0000000  12.0000000  12.0000000  12.0000000  12.0000000  12.0000000  12.0000000  12.0000000  12.0000000  12.0000000
 NucSpn=           0           0           0           0           0           0           0           0           0           0
 AtZEff=   0.0000000   0.0000000   0.0000000   0.0000000   0.0000000   0.0000000   0.0000000   0.0000000   0.0000000   0.0000000
 NQMom=    0.0000000   0.0000000   0.0000000   0.0000000   0.0000000   0.0000000   0.0000000   0.0000000   0.0000000   0.0000000
 NMagM=    0.0000000   0.0000000   0.0000000   0.0000000   0.0000000   0.0000000   0.0000000   0.0000000   0.0000000   0.0000000

  Atom       151         152         153         154         155         156         157         158         159         160
 IAtWgt=          12          12          12          12          12          12          12          12          12          12
 AtmWgt=  12.0000000  12.0000000  12.0000000  12.0000000  12.0000000  12.0000000  12.0000000  12.0000000  12.0000000  12.0000000
 NucSpn=           0           0           0           0           0           0           0           0           0           0
 AtZEff=   0.0000000   0.0000000   0.0000000   0.0000000   0.0000000   0.0000000   0.0000000   0.0000000   0.0000000   0.0000000
 NQMom=    0.0000000   0.0000000   0.0000000   0.0000000   0.0000000   0.0000000   0.0000000   0.0000000   0.0000000   0.0000000
 NMagM=    0.0000000   0.0000000   0.0000000   0.0000000   0.0000000   0.0000000   0.0000000   0.0000000   0.0000000   0.0000000

  Atom       161         162         163         164         165         166         167         168         169         170
 IAtWgt=          12          12          12          12          12          12          12          12          12          12
 AtmWgt=  12.0000000  12.0000000  12.0000000  12.0000000  12.0000000  12.0000000  12.0000000  12.0000000  12.0000000  12.0000000
 NucSpn=           0           0           0           0           0           0           0           0           0           0
 AtZEff=   0.0000000   0.0000000   0.0000000   0.0000000   0.0000000   0.0000000   0.0000000   0.0000000   0.0000000   0.0000000
 NQMom=    0.0000000   0.0000000   0.0000000   0.0000000   0.0000000   0.0000000   0.0000000   0.0000000   0.0000000   0.0000000
 NMagM=    0.0000000   0.0000000   0.0000000   0.0000000   0.0000000   0.0000000   0.0000000   0.0000000   0.0000000   0.0000000

  Atom       171         172         173         174         175         176         177         178         179         180
 IAtWgt=          12          12          12          12          12          12          12          12          12          12
 AtmWgt=  12.0000000  12.0000000  12.0000000  12.0000000  12.0000000  12.0000000  12.0000000  12.0000000  12.0000000  12.0000000
 NucSpn=           0           0           0           0           0           0           0           0           0           0
 AtZEff=   0.0000000   0.0000000   0.0000000   0.0000000   0.0000000   0.0000000   0.0000000   0.0000000   0.0000000   0.0000000
 NQMom=    0.0000000   0.0000000   0.0000000   0.0000000   0.0000000   0.0000000   0.0000000   0.0000000   0.0000000   0.0000000
 NMagM=    0.0000000   0.0000000   0.0000000   0.0000000   0.0000000   0.0000000   0.0000000   0.0000000   0.0000000   0.0000000

  Atom       181         182         183         184         185         186         187         188         189         190
 IAtWgt=          12          12          12          12          12          12          12          12          12          12
 AtmWgt=  12.0000000  12.0000000  12.0000000  12.0000000  12.0000000  12.0000000  12.0000000  12.0000000  12.0000000  12.0000000
 NucSpn=           0           0           0           0           0           0           0           0           0           0
 AtZEff=   0.0000000   0.0000000   0.0000000   0.0000000   0.0000000   0.0000000   0.0000000   0.0000000   0.0000000   0.0000000
 NQMom=    0.0000000   0.0000000   0.0000000   0.0000000   0.0000000   0.0000000   0.0000000   0.0000000   0.0000000   0.0000000
 NMagM=    0.0000000   0.0000000   0.0000000   0.0000000   0.0000000   0.0000000   0.0000000   0.0000000   0.0000000   0.0000000

  Atom       191         192         193         194         195         196         197         198         199         200
 IAtWgt=          12          12          12          12          12          12          12          12          12          12
 AtmWgt=  12.0000000  12.0000000  12.0000000  12.0000000  12.0000000  12.0000000  12.0000000  12.0000000  12.0000000  12.0000000
 NucSpn=           0           0           0           0           0           0           0           0           0           0
 AtZEff=   0.0000000   0.0000000   0.0000000   0.0000000   0.0000000   0.0000000   0.0000000   0.0000000   0.0000000   0.0000000
 NQMom=    0.0000000   0.0000000   0.0000000   0.0000000   0.0000000   0.0000000   0.0000000   0.0000000   0.0000000   0.0000000
 NMagM=    0.0000000   0.0000000   0.0000000   0.0000000   0.0000000   0.0000000   0.0000000   0.0000000   0.0000000   0.0000000

  Atom       201         202         203         204         205         206         207         208         209         210
 IAtWgt=          12          12          12          12          12          12          12          12          12          12
 AtmWgt=  12.0000000  12.0000000  12.0000000  12.0000000  12.0000000  12.0000000  12.0000000  12.0000000  12.0000000  12.0000000
 NucSpn=           0           0           0           0           0           0           0           0           0           0
 AtZEff=   0.0000000   0.0000000   0.0000000   0.0000000   0.0000000   0.0000000   0.0000000   0.0000000   0.0000000   0.0000000
 NQMom=    0.0000000   0.0000000   0.0000000   0.0000000   0.0000000   0.0000000   0.0000000   0.0000000   0.0000000   0.0000000
 NMagM=    0.0000000   0.0000000   0.0000000   0.0000000   0.0000000   0.0000000   0.0000000   0.0000000   0.0000000   0.0000000

  Atom       211         212         213         214         215         216         217         218         219         220
 IAtWgt=          12          12          12          12          12          12          12          12          12          12
 AtmWgt=  12.0000000  12.0000000  12.0000000  12.0000000  12.0000000  12.0000000  12.0000000  12.0000000  12.0000000  12.0000000
 NucSpn=           0           0           0           0           0           0           0           0           0           0
 AtZEff=   0.0000000   0.0000000   0.0000000   0.0000000   0.0000000   0.0000000   0.0000000   0.0000000   0.0000000   0.0000000
 NQMom=    0.0000000   0.0000000   0.0000000   0.0000000   0.0000000   0.0000000   0.0000000   0.0000000   0.0000000   0.0000000
 NMagM=    0.0000000   0.0000000   0.0000000   0.0000000   0.0000000   0.0000000   0.0000000   0.0000000   0.0000000   0.0000000

  Atom       221         222         223         224         225         226         227         228         229         230
 IAtWgt=          12          12          12          12          12          12          12          12          12          12
 AtmWgt=  12.0000000  12.0000000  12.0000000  12.0000000  12.0000000  12.0000000  12.0000000  12.0000000  12.0000000  12.0000000
 NucSpn=           0           0           0           0           0           0           0           0           0           0
 AtZEff=   0.0000000   0.0000000   0.0000000   0.0000000   0.0000000   0.0000000   0.0000000   0.0000000   0.0000000   0.0000000
 NQMom=    0.0000000   0.0000000   0.0000000   0.0000000   0.0000000   0.0000000   0.0000000   0.0000000   0.0000000   0.0000000
 NMagM=    0.0000000   0.0000000   0.0000000   0.0000000   0.0000000   0.0000000   0.0000000   0.0000000   0.0000000   0.0000000

  Atom       231         232         233         234         235         236         237         238         239         240
 IAtWgt=          12          12          12          12          12          12          12          12          12          12
 AtmWgt=  12.0000000  12.0000000  12.0000000  12.0000000  12.0000000  12.0000000  12.0000000  12.0000000  12.0000000  12.0000000
 NucSpn=           0           0           0           0           0           0           0           0           0           0
 AtZEff=   0.0000000   0.0000000   0.0000000   0.0000000   0.0000000   0.0000000   0.0000000   0.0000000   0.0000000   0.0000000
 NQMom=    0.0000000   0.0000000   0.0000000   0.0000000   0.0000000   0.0000000   0.0000000   0.0000000   0.0000000   0.0000000
 NMagM=    0.0000000   0.0000000   0.0000000   0.0000000   0.0000000   0.0000000   0.0000000   0.0000000   0.0000000   0.0000000

  Atom       241         242         243         244         245         246         247         248         249         250
 IAtWgt=          12          12          12          12          12          12          12          12          12          12
 AtmWgt=  12.0000000  12.0000000  12.0000000  12.0000000  12.0000000  12.0000000  12.0000000  12.0000000  12.0000000  12.0000000
 NucSpn=           0           0           0           0           0           0           0           0           0           0
 AtZEff=   0.0000000   0.0000000   0.0000000   0.0000000   0.0000000   0.0000000   0.0000000   0.0000000   0.0000000   0.0000000
 NQMom=    0.0000000   0.0000000   0.0000000   0.0000000   0.0000000   0.0000000   0.0000000   0.0000000   0.0000000   0.0000000
 NMagM=    0.0000000   0.0000000   0.0000000   0.0000000   0.0000000   0.0000000   0.0000000   0.0000000   0.0000000   0.0000000

  Atom       251         252         253         254         255         256         257         258         259         260
 IAtWgt=          12          12          12          12          12          12          12          12          12          12
 AtmWgt=  12.0000000  12.0000000  12.0000000  12.0000000  12.0000000  12.0000000  12.0000000  12.0000000  12.0000000  12.0000000
 NucSpn=           0           0           0           0           0           0           0           0           0           0
 AtZEff=   0.0000000   0.0000000   0.0000000   0.0000000   0.0000000   0.0000000   0.0000000   0.0000000   0.0000000   0.0000000
 NQMom=    0.0000000   0.0000000   0.0000000   0.0000000   0.0000000   0.0000000   0.0000000   0.0000000   0.0000000   0.0000000
 NMagM=    0.0000000   0.0000000   0.0000000   0.0000000   0.0000000   0.0000000   0.0000000   0.0000000   0.0000000   0.0000000

  Atom       261         262         263         264         265         266         267         268         269         270
 IAtWgt=          12          12          12          12          12          12          12          12          12          12
 AtmWgt=  12.0000000  12.0000000  12.0000000  12.0000000  12.0000000  12.0000000  12.0000000  12.0000000  12.0000000  12.0000000
 NucSpn=           0           0           0           0           0           0           0           0           0           0
 AtZEff=   0.0000000   0.0000000   0.0000000   0.0000000   0.0000000   0.0000000   0.0000000   0.0000000   0.0000000   0.0000000
 NQMom=    0.0000000   0.0000000   0.0000000   0.0000000   0.0000000   0.0000000   0.0000000   0.0000000   0.0000000   0.0000000
 NMagM=    0.0000000   0.0000000   0.0000000   0.0000000   0.0000000   0.0000000   0.0000000   0.0000000   0.0000000   0.0000000

  Atom       271         272         273         274         275         276         277         278         279         280
 IAtWgt=          12          12          12          12          12          12          12          12          12          12
 AtmWgt=  12.0000000  12.0000000  12.0000000  12.0000000  12.0000000  12.0000000  12.0000000  12.0000000  12.0000000  12.0000000
 NucSpn=           0           0           0           0           0           0           0           0           0           0
 AtZEff=   0.0000000   0.0000000   0.0000000   0.0000000   0.0000000   0.0000000   0.0000000   0.0000000   0.0000000   0.0000000
 NQMom=    0.0000000   0.0000000   0.0000000   0.0000000   0.0000000   0.0000000   0.0000000   0.0000000   0.0000000   0.0000000
 NMagM=    0.0000000   0.0000000   0.0000000   0.0000000   0.0000000   0.0000000   0.0000000   0.0000000   0.0000000   0.0000000

  Atom       281         282         283         284         285         286         287         288         289         290
 IAtWgt=          12          12          12          12          12          12          12          12          12          12
 AtmWgt=  12.0000000  12.0000000  12.0000000  12.0000000  12.0000000  12.0000000  12.0000000  12.0000000  12.0000000  12.0000000
 NucSpn=           0           0           0           0           0           0           0           0           0           0
 AtZEff=   0.0000000   0.0000000   0.0000000   0.0000000   0.0000000   0.0000000   0.0000000   0.0000000   0.0000000   0.0000000
 NQMom=    0.0000000   0.0000000   0.0000000   0.0000000   0.0000000   0.0000000   0.0000000   0.0000000   0.0000000   0.0000000
 NMagM=    0.0000000   0.0000000   0.0000000   0.0000000   0.0000000   0.0000000   0.0000000   0.0000000   0.0000000   0.0000000

  Atom       291         292         293         294         295         296         297         298         299         300
 IAtWgt=          12          12          12          12          12          12          12          12          12          12
 AtmWgt=  12.0000000  12.0000000  12.0000000  12.0000000  12.0000000  12.0000000  12.0000000  12.0000000  12.0000000  12.0000000
 NucSpn=           0           0           0           0           0           0           0           0           0           0
 AtZEff=   0.0000000   0.0000000   0.0000000   0.0000000   0.0000000   0.0000000   0.0000000   0.0000000   0.0000000   0.0000000
 NQMom=    0.0000000   0.0000000   0.0000000   0.0000000   0.0000000   0.0000000   0.0000000   0.0000000   0.0000000   0.0000000
 NMagM=    0.0000000   0.0000000   0.0000000   0.0000000   0.0000000   0.0000000   0.0000000   0.0000000   0.0000000   0.0000000

  Atom       301         302         303         304         305         306         307         308         309         310
 IAtWgt=          12          12          12          12          12          12          12          12          12          12
 AtmWgt=  12.0000000  12.0000000  12.0000000  12.0000000  12.0000000  12.0000000  12.0000000  12.0000000  12.0000000  12.0000000
 NucSpn=           0           0           0           0           0           0           0           0           0           0
 AtZEff=   0.0000000   0.0000000   0.0000000   0.0000000   0.0000000   0.0000000   0.0000000   0.0000000   0.0000000   0.0000000
 NQMom=    0.0000000   0.0000000   0.0000000   0.0000000   0.0000000   0.0000000   0.0000000   0.0000000   0.0000000   0.0000000
 NMagM=    0.0000000   0.0000000   0.0000000   0.0000000   0.0000000   0.0000000   0.0000000   0.0000000   0.0000000   0.0000000

  Atom       311         312         313         314         315         316         317         318         319         320
 IAtWgt=          12          12          12          12          12          12          12          12          12          12
 AtmWgt=  12.0000000  12.0000000  12.0000000  12.0000000  12.0000000  12.0000000  12.0000000  12.0000000  12.0000000  12.0000000
 NucSpn=           0           0           0           0           0           0           0           0           0           0
 AtZEff=   0.0000000   0.0000000   0.0000000   0.0000000   0.0000000   0.0000000   0.0000000   0.0000000   0.0000000   0.0000000
 NQMom=    0.0000000   0.0000000   0.0000000   0.0000000   0.0000000   0.0000000   0.0000000   0.0000000   0.0000000   0.0000000
 NMagM=    0.0000000   0.0000000   0.0000000   0.0000000   0.0000000   0.0000000   0.0000000   0.0000000   0.0000000   0.0000000

  Atom       321         322         323         324         325         326         327         328         329         330
 IAtWgt=          12          12          12          12          12          12          12          12          12          12
 AtmWgt=  12.0000000  12.0000000  12.0000000  12.0000000  12.0000000  12.0000000  12.0000000  12.0000000  12.0000000  12.0000000
 NucSpn=           0           0           0           0           0           0           0           0           0           0
 AtZEff=   0.0000000   0.0000000   0.0000000   0.0000000   0.0000000   0.0000000   0.0000000   0.0000000   0.0000000   0.0000000
 NQMom=    0.0000000   0.0000000   0.0000000   0.0000000   0.0000000   0.0000000   0.0000000   0.0000000   0.0000000   0.0000000
 NMagM=    0.0000000   0.0000000   0.0000000   0.0000000   0.0000000   0.0000000   0.0000000   0.0000000   0.0000000   0.0000000

  Atom       331         332         333         334         335         336         337         338         339         340
 IAtWgt=          12          12          12          12          12          12          12          12          12          12
 AtmWgt=  12.0000000  12.0000000  12.0000000  12.0000000  12.0000000  12.0000000  12.0000000  12.0000000  12.0000000  12.0000000
 NucSpn=           0           0           0           0           0           0           0           0           0           0
 AtZEff=   0.0000000   0.0000000   0.0000000   0.0000000   0.0000000   0.0000000   0.0000000   0.0000000   0.0000000   0.0000000
 NQMom=    0.0000000   0.0000000   0.0000000   0.0000000   0.0000000   0.0000000   0.0000000   0.0000000   0.0000000   0.0000000
 NMagM=    0.0000000   0.0000000   0.0000000   0.0000000   0.0000000   0.0000000   0.0000000   0.0000000   0.0000000   0.0000000

  Atom       341         342         343         344         345         346         347         348         349         350
 IAtWgt=          12          12          12          12          12          12          12          12          12          12
 AtmWgt=  12.0000000  12.0000000  12.0000000  12.0000000  12.0000000  12.0000000  12.0000000  12.0000000  12.0000000  12.0000000
 NucSpn=           0           0           0           0           0           0           0           0           0           0
 AtZEff=   0.0000000   0.0000000   0.0000000   0.0000000   0.0000000   0.0000000   0.0000000   0.0000000   0.0000000   0.0000000
 NQMom=    0.0000000   0.0000000   0.0000000   0.0000000   0.0000000   0.0000000   0.0000000   0.0000000   0.0000000   0.0000000
 NMagM=    0.0000000   0.0000000   0.0000000   0.0000000   0.0000000   0.0000000   0.0000000   0.0000000   0.0000000   0.0000000

  Atom       351         352         353         354         355         356         357         358         359         360
 IAtWgt=          12          12          12          12          12          12          12          12          12          12
 AtmWgt=  12.0000000  12.0000000  12.0000000  12.0000000  12.0000000  12.0000000  12.0000000  12.0000000  12.0000000  12.0000000
 NucSpn=           0           0           0           0           0           0           0           0           0           0
 AtZEff=   0.0000000   0.0000000   0.0000000   0.0000000   0.0000000   0.0000000   0.0000000   0.0000000   0.0000000   0.0000000
 NQMom=    0.0000000   0.0000000   0.0000000   0.0000000   0.0000000   0.0000000   0.0000000   0.0000000   0.0000000   0.0000000
 NMagM=    0.0000000   0.0000000   0.0000000   0.0000000   0.0000000   0.0000000   0.0000000   0.0000000   0.0000000   0.0000000

  Atom       361         362         363         364         365         366         367         368         369         370
 IAtWgt=          12          12          12          12          12          12          12          12          12          12
 AtmWgt=  12.0000000  12.0000000  12.0000000  12.0000000  12.0000000  12.0000000  12.0000000  12.0000000  12.0000000  12.0000000
 NucSpn=           0           0           0           0           0           0           0           0           0           0
 AtZEff=   0.0000000   0.0000000   0.0000000   0.0000000   0.0000000   0.0000000   0.0000000   0.0000000   0.0000000   0.0000000
 NQMom=    0.0000000   0.0000000   0.0000000   0.0000000   0.0000000   0.0000000   0.0000000   0.0000000   0.0000000   0.0000000
 NMagM=    0.0000000   0.0000000   0.0000000   0.0000000   0.0000000   0.0000000   0.0000000   0.0000000   0.0000000   0.0000000

  Atom       371         372         373         374         375         376         377         378         379         380
 IAtWgt=          12          12          12          12          12          12          12          12          12          12
 AtmWgt=  12.0000000  12.0000000  12.0000000  12.0000000  12.0000000  12.0000000  12.0000000  12.0000000  12.0000000  12.0000000
 NucSpn=           0           0           0           0           0           0           0           0           0           0
 AtZEff=   0.0000000   0.0000000   0.0000000   0.0000000   0.0000000   0.0000000   0.0000000   0.0000000   0.0000000   0.0000000
 NQMom=    0.0000000   0.0000000   0.0000000   0.0000000   0.0000000   0.0000000   0.0000000   0.0000000   0.0000000   0.0000000
 NMagM=    0.0000000   0.0000000   0.0000000   0.0000000   0.0000000   0.0000000   0.0000000   0.0000000   0.0000000   0.0000000

  Atom       381         382         383         384         385         386         387         388         389         390
 IAtWgt=          12          12          12          12          12          12          12          12          12          12
 AtmWgt=  12.0000000  12.0000000  12.0000000  12.0000000  12.0000000  12.0000000  12.0000000  12.0000000  12.0000000  12.0000000
 NucSpn=           0           0           0           0           0           0           0           0           0           0
 AtZEff=   0.0000000   0.0000000   0.0000000   0.0000000   0.0000000   0.0000000   0.0000000   0.0000000   0.0000000   0.0000000
 NQMom=    0.0000000   0.0000000   0.0000000   0.0000000   0.0000000   0.0000000   0.0000000   0.0000000   0.0000000   0.0000000
 NMagM=    0.0000000   0.0000000   0.0000000   0.0000000   0.0000000   0.0000000   0.0000000   0.0000000   0.0000000   0.0000000

  Atom       391         392         393         394         395         396         397         398         399         400
 IAtWgt=          12          12          12          12          12          12          12          12          12          12
 AtmWgt=  12.0000000  12.0000000  12.0000000  12.0000000  12.0000000  12.0000000  12.0000000  12.0000000  12.0000000  12.0000000
 NucSpn=           0           0           0           0           0           0           0           0           0           0
 AtZEff=   0.0000000   0.0000000   0.0000000   0.0000000   0.0000000   0.0000000   0.0000000   0.0000000   0.0000000   0.0000000
 NQMom=    0.0000000   0.0000000   0.0000000   0.0000000   0.0000000   0.0000000   0.0000000   0.0000000   0.0000000   0.0000000
 NMagM=    0.0000000   0.0000000   0.0000000   0.0000000   0.0000000   0.0000000   0.0000000   0.0000000   0.0000000   0.0000000

  Atom       401         402         403         404         405         406         407         408         409         410
 IAtWgt=          12          12          12          12          12          12          12          12          12          12
 AtmWgt=  12.0000000  12.0000000  12.0000000  12.0000000  12.0000000  12.0000000  12.0000000  12.0000000  12.0000000  12.0000000
 NucSpn=           0           0           0           0           0           0           0           0           0           0
 AtZEff=   0.0000000   0.0000000   0.0000000   0.0000000   0.0000000   0.0000000   0.0000000   0.0000000   0.0000000   0.0000000
 NQMom=    0.0000000   0.0000000   0.0000000   0.0000000   0.0000000   0.0000000   0.0000000   0.0000000   0.0000000   0.0000000
 NMagM=    0.0000000   0.0000000   0.0000000   0.0000000   0.0000000   0.0000000   0.0000000   0.0000000   0.0000000   0.0000000

  Atom       411         412         413         414         415         416         417         418         419         420
 IAtWgt=          12          12          12          12          12          12          12          12          12          12
 AtmWgt=  12.0000000  12.0000000  12.0000000  12.0000000  12.0000000  12.0000000  12.0000000  12.0000000  12.0000000  12.0000000
 NucSpn=           0           0           0           0           0           0           0           0           0           0
 AtZEff=   0.0000000   0.0000000   0.0000000   0.0000000   0.0000000   0.0000000   0.0000000   0.0000000   0.0000000   0.0000000
 NQMom=    0.0000000   0.0000000   0.0000000   0.0000000   0.0000000   0.0000000   0.0000000   0.0000000   0.0000000   0.0000000
 NMagM=    0.0000000   0.0000000   0.0000000   0.0000000   0.0000000   0.0000000   0.0000000   0.0000000   0.0000000   0.0000000

  Atom       421         422         423         424         425         426         427         428         429         430
 IAtWgt=          12          12          12          12          12          12          12          12          12          12
 AtmWgt=  12.0000000  12.0000000  12.0000000  12.0000000  12.0000000  12.0000000  12.0000000  12.0000000  12.0000000  12.0000000
 NucSpn=           0           0           0           0           0           0           0           0           0           0
 AtZEff=   0.0000000   0.0000000   0.0000000   0.0000000   0.0000000   0.0000000   0.0000000   0.0000000   0.0000000   0.0000000
 NQMom=    0.0000000   0.0000000   0.0000000   0.0000000   0.0000000   0.0000000   0.0000000   0.0000000   0.0000000   0.0000000
 NMagM=    0.0000000   0.0000000   0.0000000   0.0000000   0.0000000   0.0000000   0.0000000   0.0000000   0.0000000   0.0000000

  Atom       431         432         433         434         435         436         437         438         439         440
 IAtWgt=          12          12          12          12          12          12          12          12          12          12
 AtmWgt=  12.0000000  12.0000000  12.0000000  12.0000000  12.0000000  12.0000000  12.0000000  12.0000000  12.0000000  12.0000000
 NucSpn=           0           0           0           0           0           0           0           0           0           0
 AtZEff=   0.0000000   0.0000000   0.0000000   0.0000000   0.0000000   0.0000000   0.0000000   0.0000000   0.0000000   0.0000000
 NQMom=    0.0000000   0.0000000   0.0000000   0.0000000   0.0000000   0.0000000   0.0000000   0.0000000   0.0000000   0.0000000
 NMagM=    0.0000000   0.0000000   0.0000000   0.0000000   0.0000000   0.0000000   0.0000000   0.0000000   0.0000000   0.0000000

  Atom       441         442         443         444         445         446         447         448         449         450
 IAtWgt=          12          12          12          12          12          12          12          12          12          12
 AtmWgt=  12.0000000  12.0000000  12.0000000  12.0000000  12.0000000  12.0000000  12.0000000  12.0000000  12.0000000  12.0000000
 NucSpn=           0           0           0           0           0           0           0           0           0           0
 AtZEff=   0.0000000   0.0000000   0.0000000   0.0000000   0.0000000   0.0000000   0.0000000   0.0000000   0.0000000   0.0000000
 NQMom=    0.0000000   0.0000000   0.0000000   0.0000000   0.0000000   0.0000000   0.0000000   0.0000000   0.0000000   0.0000000
 NMagM=    0.0000000   0.0000000   0.0000000   0.0000000   0.0000000   0.0000000   0.0000000   0.0000000   0.0000000   0.0000000

  Atom       451         452         453         454         455         456         457         458         459         460
 IAtWgt=          12          12          12          12          12          12          12          12          12          12
 AtmWgt=  12.0000000  12.0000000  12.0000000  12.0000000  12.0000000  12.0000000  12.0000000  12.0000000  12.0000000  12.0000000
 NucSpn=           0           0           0           0           0           0           0           0           0           0
 AtZEff=   0.0000000   0.0000000   0.0000000   0.0000000   0.0000000   0.0000000   0.0000000   0.0000000   0.0000000   0.0000000
 NQMom=    0.0000000   0.0000000   0.0000000   0.0000000   0.0000000   0.0000000   0.0000000   0.0000000   0.0000000   0.0000000
 NMagM=    0.0000000   0.0000000   0.0000000   0.0000000   0.0000000   0.0000000   0.0000000   0.0000000   0.0000000   0.0000000

  Atom       461         462         463         464         465         466         467         468         469         470
 IAtWgt=          12          12          12          12          12          12          12          12          12          12
 AtmWgt=  12.0000000  12.0000000  12.0000000  12.0000000  12.0000000  12.0000000  12.0000000  12.0000000  12.0000000  12.0000000
 NucSpn=           0           0           0           0           0           0           0           0           0           0
 AtZEff=   0.0000000   0.0000000   0.0000000   0.0000000   0.0000000   0.0000000   0.0000000   0.0000000   0.0000000   0.0000000
 NQMom=    0.0000000   0.0000000   0.0000000   0.0000000   0.0000000   0.0000000   0.0000000   0.0000000   0.0000000   0.0000000
 NMagM=    0.0000000   0.0000000   0.0000000   0.0000000   0.0000000   0.0000000   0.0000000   0.0000000   0.0000000   0.0000000

  Atom       471         472         473         474         475         476         477         478         479         480
 IAtWgt=          12          12          12          12          12          12          12          12          12          12
 AtmWgt=  12.0000000  12.0000000  12.0000000  12.0000000  12.0000000  12.0000000  12.0000000  12.0000000  12.0000000  12.0000000
 NucSpn=           0           0           0           0           0           0           0           0           0           0
 AtZEff=   0.0000000   0.0000000   0.0000000   0.0000000   0.0000000   0.0000000   0.0000000   0.0000000   0.0000000   0.0000000
 NQMom=    0.0000000   0.0000000   0.0000000   0.0000000   0.0000000   0.0000000   0.0000000   0.0000000   0.0000000   0.0000000
 NMagM=    0.0000000   0.0000000   0.0000000   0.0000000   0.0000000   0.0000000   0.0000000   0.0000000   0.0000000   0.0000000

  Atom       481         482         483         484         485         486         487         488         489         490
 IAtWgt=          12          12          12          12          12          12          12          12          12          12
 AtmWgt=  12.0000000  12.0000000  12.0000000  12.0000000  12.0000000  12.0000000  12.0000000  12.0000000  12.0000000  12.0000000
 NucSpn=           0           0           0           0           0           0           0           0           0           0
 AtZEff=   0.0000000   0.0000000   0.0000000   0.0000000   0.0000000   0.0000000   0.0000000   0.0000000   0.0000000   0.0000000
 NQMom=    0.0000000   0.0000000   0.0000000   0.0000000   0.0000000   0.0000000   0.0000000   0.0000000   0.0000000   0.0000000
 NMagM=    0.0000000   0.0000000   0.0000000   0.0000000   0.0000000   0.0000000   0.0000000   0.0000000   0.0000000   0.0000000

  Atom       491         492         493         494         495         496         497         498         499         500
 IAtWgt=          12          12          12          12          12          12          12          12          12          12
 AtmWgt=  12.0000000  12.0000000  12.0000000  12.0000000  12.0000000  12.0000000  12.0000000  12.0000000  12.0000000  12.0000000
 NucSpn=           0           0           0           0           0           0           0           0           0           0
 AtZEff=   0.0000000   0.0000000   0.0000000   0.0000000   0.0000000   0.0000000   0.0000000   0.0000000   0.0000000   0.0000000
 NQMom=    0.0000000   0.0000000   0.0000000   0.0000000   0.0000000   0.0000000   0.0000000   0.0000000   0.0000000   0.0000000
 NMagM=    0.0000000   0.0000000   0.0000000   0.0000000   0.0000000   0.0000000   0.0000000   0.0000000   0.0000000   0.0000000
 Leave Link  101 at Mon May 15 09:14:47 2006, MaxMem=  131072000 cpu:       0.3
 (Enter /home/gauss/gdv/l202.exe)
 Symmetry turned off by external request.
 Stoichiometry    C500
 Framework group  C1[X(C500)]
 Deg. of freedom  1494
 Full point group                 C1      NOp   1
                         Z-Matrix orientation:                         
 ---------------------------------------------------------------------
 Center     Atomic     Atomic              Coordinates (Angstroms)
 Number     Number      Type              X           Y           Z
 ---------------------------------------------------------------------
    1          6             0        0.000000    0.000000    0.000000
    2          6             0        1.500000    0.000000    0.000000
    3          6             0        3.000000    0.000000    0.000000
    4          6             0        4.500000    0.000000    0.000000
    5          6             0        6.000000    0.000000    0.000000
    6          6             0        7.500000    0.000000    0.000000
    7          6             0        9.000000    0.000000    0.000000
    8          6             0       10.500000    0.000000    0.000000
    9          6             0       12.000000    0.000000    0.000000
   10          6             0       13.500000    0.000000    0.000000
   11          6             0        0.000000    1.500000    0.000000
   12          6             0        0.000000    3.000000    0.000000
   13          6             0        0.000000    4.500000    0.000000
   14          6             0        0.000000    6.000000    0.000000
   15          6             0        0.000000    7.500000    0.000000
   16          6             0        0.000000    9.000000    0.000000
   17          6             0        0.000000   10.500000    0.000000
   18          6             0        0.000000   12.000000    0.000000
   19          6             0        0.000000   13.500000    0.000000
   20          6             0        1.500000    1.500000    0.000000
   21          6             0        1.500000    3.000000    0.000000
   22          6             0        1.500000    4.500000    0.000000
   23          6             0        1.500000    6.000000    0.000000
   24          6             0        1.500000    7.500000    0.000000
   25          6             0        1.500000    9.000000    0.000000
   26          6             0        1.500000   10.500000    0.000000
   27          6             0        1.500000   12.000000    0.000000
   28          6             0        1.500000   13.500000    0.000000
   29          6             0        3.000000    1.500000    0.000000
   30          6             0        3.000000    3.000000    0.000000
   31          6             0        3.000000    4.500000    0.000000
   32          6             0        3.000000    6.000000    0.000000
   33          6             0        3.000000    7.500000    0.000000
   34          6             0        3.000000    9.000000    0.000000
   35          6             0        3.000000   10.500000    0.000000
   36          6             0        3.000000   12.000000    0.000000
   37          6             0        3.000000   13.500000    0.000000
   38          6             0        4.500000    1.500000    0.000000
   39          6             0        4.500000    3.000000    0.000000
   40          6             0        4.500000    4.500000    0.000000
   41          6             0        4.500000    6.000000    0.000000
   42          6             0        4.500000    7.500000    0.000000
   43          6             0        4.500000    9.000000    0.000000
   44          6             0        4.500000   10.500000    0.000000
   45          6             0        4.500000   12.000000    0.000000
   46          6             0        4.500000   13.500000    0.000000
   47          6             0        6.000000    1.500000    0.000000
   48          6             0        6.000000    3.000000    0.000000
   49          6             0        6.000000    4.500000    0.000000
   50          6             0        6.000000    6.000000    0.000000
   51          6             0        6.000000    7.500000    0.000000
   52          6             0        6.000000    9.000000    0.000000
   53          6             0        6.000000   10.500000    0.000000
   54          6             0        6.000000   12.000000    0.000000
   55          6             0        6.000000   13.500000    0.000000
   56          6             0        7.500000    1.500000    0.000000
   57          6             0        7.500000    3.000000    0.000000
   58          6             0        7.500000    4.500000    0.000000
   59          6             0        7.500000    6.000000    0.000000
   60          6             0        7.500000    7.500000    0.000000
   61          6             0        7.500000    9.000000    0.000000
   62          6             0        7.500000   10.500000    0.000000
   63          6             0        7.500000   12.000000    0.000000
   64          6             0        7.500000   13.500000    0.000000
   65          6             0        9.000000    1.500000    0.000000
   66          6             0        9.000000    3.000000    0.000000
   67          6             0        9.000000    4.500000    0.000000
   68          6             0        9.000000    6.000000    0.000000
   69          6             0        9.000000    7.500000    0.000000
   70          6             0        9.000000    9.000000    0.000000
   71          6             0        9.000000   10.500000    0.000000
   72          6             0        9.000000   12.000000    0.000000
   73          6             0        9.000000   13.500000    0.000000
   74          6             0       10.500000    1.500000    0.000000
   75          6             0       10.500000    3.000000    0.000000
   76          6             0       10.500000    4.500000    0.000000
   77          6             0       10.500000    6.000000    0.000000
   78          6             0       10.500000    7.500000    0.000000
   79          6             0       10.500000    9.000000    0.000000
   80          6             0       10.500000   10.500000    0.000000
   81          6             0       10.500000   12.000000    0.000000
   82          6             0       10.500000   13.500000    0.000000
   83          6             0       12.000000    1.500000    0.000000
   84          6             0       12.000000    3.000000    0.000000
[...]
 Leave Link  202 at Mon May 15 09:14:48 2006, MaxMem=  131072000 cpu:       0.1
Taking exe name from GAUSS_EXEDIR -- /home/gauss/gdv/l301.exe.

executing /home/gauss/gdv/l301.exe 131072000 /home/xsli/TestCode/Gau-31230.chk 0 /home/xsli/TestCode/Gau-31230.int 0 /home/xsli/TestCode/Gau-31230.rwf 0 /home/xsli/TestCode/Gau-31230.d2e 0 /home/xsli/TestCode/Gau-31230.scr 0 /home/xsli/TestCode/Gau-31229.inp 0 junk.out 0 /home/xsli/TestCode/Gau-31230.nex 0

numenv is 53
myenvir[0] is _DSM_BARRIER=SHM
myenvir[1] is SUPPORTED=en_US.UTF-8:en_US:en
myenvir[2] is HOSTNAME=Bohr
myenvir[3] is GAUSS_ARCHDIR=/home/gauss/gdv/arch
myenvir[4] is TERM=xterm
myenvir[5] is HOST=Bohr
myenvir[6] is SHELL=/bin/tcsh
myenvir[7] is MAKEFLAGS= CSIZE=2097152 CSIZEW=256 MACHTY=k8-64 GAULIBU=util.a BLAS1=bsd/libf77blas-amd64.a BLAS2=bsd/libatlas-amd64.a OPTOI= I8FLAG=-i8 MMODEL='-mcmodel=medium' I8CPP1=-DI64 I8CPP2=-DP64 I8CPP3=-DPACK64 I8CPP4=-DUSE_I2 VECTOR4= PGISSELIB=
myenvir[8] is SSH_CLIENT=::ffff:192.168.0.110 3447 22
myenvir[9] is WINDOWID=2097168
myenvir[10] is QTDIR=/usr/lib64/qt-3.3
myenvir[11] is gdvroot=/home/gauss
myenvir[12] is GROUP=users
myenvir[13] is USER=xsli
myenvir[14] is LD_LIBRARY_PATH=/home/gauss/gdv/bsd:/home/gauss/gdv/local:/home/gauss/gdv/extras:/home/gauss/gdv:/home/gauss/gdv/bsd:/home/gauss/gdv/local:/home/gauss/gdv/extras:/home/gauss/gdv:/home/gauss/gv/lib:/home/gauss/gv/lib
myenvir[15] is LS_COLORS=no=00:fi=00:di=00;34:ln=00;36:pi=40;33:so=00;35:bd=40;33;01:cd=40;33;01:or=01;05;37;41:mi=01;05;37;41:ex=00;32:*.cmd=00;32:*.exe=00;32:*.com=00;32:*.btm=00;32:*.bat=00;32:*.sh=00;32:*.csh=00;32:*.tar=00;31:*.tgz=00;31:*.arj=00;31:*.taz=00;31:*.lzh=00;31:*.zip=00;31:*.z=00;31:*.Z=00;31:*.gz=00;31:*.bz2=00;31:*.bz=00;31:*.tz=00;31:*.rpm=00;31:*.cpio=00;31:*.jpg=00;35:*.gif=00;35:*.bmp=00;35:*.xbm=00;35:*.xpm=00;35:*.png=00;35:*.tif=00;35:
myenvir[16] is LINDA_FORTRAN_LINK=pgf77 -i8 -mcmodel=medium
myenvir[17] is HOSTTYPE=x86_64-linux
myenvir[18] is KDEDIR=/usr
myenvir[19] is GAUSS_SCR=/home/scratch
myenvir[20] is PGI=/usr/pgi
myenvir[21] is MAIL=/var/spool/mail/xsli
myenvir[22] is PATH=/usr/oompi-1.0.4/bin:/usr/mpi/bin:/usr/mpi/lib:/usr/mpi/include:/usr/lib:/usr/include:/usr/pgi/linux86-64/6.1/bin:/usr/local:/usr/oompi-1.0.4/bin:/usr/mpi/bin:/usr/mpi/lib:/usr/mpi/include:/usr/lib:/usr/include:/usr/pgi/linux86-64/6.1/bin:/usr/local:/usr/kerberos/bin:/usr/local/bin:/bin:/usr/bin:/home/gauss/gdv/bsd:/home/gauss/gdv/local:/home/gauss/gdv/extras:/home/gauss/gdv:/home/gauss/gdv/bsd:/home/gauss/gdv/local:/home/gauss/gdv/extras:/home/gauss/gdv:/usr/X11R6/bin
myenvir[23] is INPUTRC=/etc/inputrc
myenvir[24] is PWD=/home/xsli/TestCode
myenvir[25] is LANG=en_US.UTF-8
myenvir[26] is GAUSS_EXEDIR=/home/gauss/gdv/bsd:/home/gauss/gdv/local:/home/gauss/gdv/extras:/home/gauss/gdv
myenvir[27] is PERLLIB=/home/gauss/gdv/bsd:/home/gauss/gdv/bsd
myenvir[28] is PGIDIR=/usr/pgi/linux86-64/6.1
myenvir[29] is LM_LICENSE_FILE=/usr/pgi/license.dat
myenvir[30] is LINDA_FORTRAN=pgf77 -i8 -mcmodel=medium
myenvir[31] is SSH_ASKPASS=/usr/libexec/openssh/gnome-ssh-askpass
myenvir[32] is _RLD_ARGS=-log /dev/null
myenvir[33] is SHLVL=2
myenvir[34] is HOME=/home/xsli
myenvir[35] is OSTYPE=linux
myenvir[36] is POSTFL_FORTRAN=pgf77 -i8 -mcmodel=medium
myenvir[37] is VENDOR=unknown
myenvir[38] is GV_DIR=/home/gauss/gv
myenvir[39] is MACHTYPE=x86_64
myenvir[40] is LOGNAME=xsli
myenvir[41] is SSH_CONNECTION=::ffff:192.168.0.110 3447 ::ffff:192.168.0.111 22
myenvir[42] is LESSOPEN=|/usr/bin/lesspipe.sh %s
myenvir[43] is DISPLAY=localhost:11.0
myenvir[44] is GDVBASIS=/home/gauss/gdv/basis
myenvir[45] is G_BROKEN_FILENAMES=1
myenvir[46] is GAUSS_LEXEDIR=/home/gauss/gdv/linda-exe
myenvir[47] is _=/home/gauss/gdv/l1.exe
myenvir[48] is MPC_GANG=OFF
myenvir[49] is GAUSS_NPROC=1
myenvir[50] is OMP_NUM_THREADS=1
myenvir[51] is NCPUS=1
myenvir[52] is GAUSS_NPROCL=1
 Contents of /IOp/:
        123456            0            0            0            0
             3            0            2            0            0
             9            0            0            0            0
             1            0            0            0            0
             0            0            0            0            1
             0            0            0            0            1
             0            0            0            0            0
             0            0            0            0            0
             0            0            0            0            0
             0            0            0            0            0
             0            0            0            0            0
             0            0            0            0            0
             0            0            0            0            0
             0            0            0            0            0
             0            0            0            0            0
             0            0            0            0            0
             0            0            0            0            0
             0            0            0            0            0
             0            0            0            0            0
             0            0            0            0            0
             0            0            0            0            0
             0            0            0            0            0
             0            0            0            0            0
             0            0            0            0            0
             0            0            0            0            0
             0            0            0            0            0
             0            0            0            0            0
             0            0            0            0            0
             0            0            0            0            0
             0            0            0            0            0
             0            0            0            0            0
             0            0            0            0            0
             0            0            0            0            0
             0            0            0            0            0
             0            0            0            0            0
             0            0            0            0            0
             0            0            0            0            0
             0            0            0            0            0
             0            0            0            0            0
             0            0            0            0            0
 Contents of /Info/:
      524     509       0       0       0     101       1       1       2
 HF\STO-3G\                                                                      
                                                                                 
                                                                                 
                                                                                 
                                                                                 
                                                                                 
                                                                                 
                                                                                 
                                                                                 
                                                                                 
                                                                                 
                                                                                 
                                                                                 
                                                                                 
                                                                                 
                                                                                 
                                                                                 
                                                                                 
                                                                                 
         
 (Enter /home/gauss/gdv/l301.exe)
 Top of link  301.    Mon May 15 09:14:49 2006        0.00 cpu seconds.
 Standard basis: STO-3G (6D, 7F)
 Integral buffers will be    131072 words long.
 Raffenetti 1 integral format.
 Two-electron integral symmetry is turned off.
  2500 basis functions,  7500 primitive gaussians,  2500 cartesian basis functions
  1500 alpha electrons     1500 beta electrons
       nuclear repulsion energy    319787.4407259586 Hartrees.
 IExCor=   0 DFT=F Ex=HF Corr=None ExCW=0 ScaHFX=  1.000000
 ScaDFX=  1.000000  1.000000  1.000000  1.000000
 IRadAn=      0 IRanWt=     -1 IRanGd=            0 ICorTp=0
 NAtoms=  500 NActive=  500 NUniq=  500 SFac= 7.50D-01 NAtFMM=   80 NAOKFM=T Big=T
 Omega=  0.000000  0.000000  0.000000
 Leave Link  301 at Mon May 15 09:14:49 2006, MaxMem=  131072000 cpu:       0.1
 ChainX:  /Info/:
      524     509       0       0       0     101       1       1       2
 HF\STO-3G\                                                                      
                                                                                 
                                                                                 
                                                                                 
                                                                                 
                                                                                 
                                                                                 
                                                                                 
                                                                                 
                                                                                 
                                                                                 
                                                                                 
                                                                                 
                                                                                 
                                                                                 
                                                                                 
                                                                                 
                                                                                 
                                                                                 
         
 ChainX:  NumRec=          15.
Taking exe name from subst 0, link 302, len 1, dir ..

executing ./l302.exe 131072000 /home/xsli/TestCode/Gau-31230.chk 0 /home/xsli/TestCode/Gau-31230.int 0 /home/xsli/TestCode/Gau-31230.rwf 0 /home/xsli/TestCode/Gau-31230.d2e 0 /home/xsli/TestCode/Gau-31230.scr 0 /home/xsli/TestCode/Gau-31229.inp 0 junk.out 0 /home/xsli/TestCode/Gau-31230.nex 0

numenv is 53
myenvir[0] is _DSM_BARRIER=SHM
myenvir[1] is SUPPORTED=en_US.UTF-8:en_US:en
myenvir[2] is HOSTNAME=Bohr
myenvir[3] is GAUSS_ARCHDIR=/home/gauss/gdv/arch
myenvir[4] is TERM=xterm
myenvir[5] is HOST=Bohr
myenvir[6] is SHELL=/bin/tcsh
myenvir[7] is MAKEFLAGS= CSIZE=2097152 CSIZEW=256 MACHTY=k8-64 GAULIBU=util.a BLAS1=bsd/libf77blas-amd64.a BLAS2=bsd/libatlas-amd64.a OPTOI= I8FLAG=-i8 MMODEL='-mcmodel=medium' I8CPP1=-DI64 I8CPP2=-DP64 I8CPP3=-DPACK64 I8CPP4=-DUSE_I2 VECTOR4= PGISSELIB=
myenvir[8] is SSH_CLIENT=::ffff:192.168.0.110 3447 22
myenvir[9] is WINDOWID=2097168
myenvir[10] is QTDIR=/usr/lib64/qt-3.3
myenvir[11] is gdvroot=/home/gauss
myenvir[12] is GROUP=users
myenvir[13] is USER=xsli
myenvir[14] is LD_LIBRARY_PATH=/home/gauss/gdv/bsd:/home/gauss/gdv/local:/home/gauss/gdv/extras:/home/gauss/gdv:/home/gauss/gdv/bsd:/home/gauss/gdv/local:/home/gauss/gdv/extras:/home/gauss/gdv:/home/gauss/gv/lib:/home/gauss/gv/lib
myenvir[15] is LS_COLORS=no=00:fi=00:di=00;34:ln=00;36:pi=40;33:so=00;35:bd=40;33;01:cd=40;33;01:or=01;05;37;41:mi=01;05;37;41:ex=00;32:*.cmd=00;32:*.exe=00;32:*.com=00;32:*.btm=00;32:*.bat=00;32:*.sh=00;32:*.csh=00;32:*.tar=00;31:*.tgz=00;31:*.arj=00;31:*.taz=00;31:*.lzh=00;31:*.zip=00;31:*.z=00;31:*.Z=00;31:*.gz=00;31:*.bz2=00;31:*.bz=00;31:*.tz=00;31:*.rpm=00;31:*.cpio=00;31:*.jpg=00;35:*.gif=00;35:*.bmp=00;35:*.xbm=00;35:*.xpm=00;35:*.png=00;35:*.tif=00;35:
myenvir[16] is LINDA_FORTRAN_LINK=pgf77 -i8 -mcmodel=medium
myenvir[17] is HOSTTYPE=x86_64-linux
myenvir[18] is KDEDIR=/usr
myenvir[19] is GAUSS_SCR=/home/scratch
myenvir[20] is PGI=/usr/pgi
myenvir[21] is MAIL=/var/spool/mail/xsli
myenvir[22] is PATH=/usr/oompi-1.0.4/bin:/usr/mpi/bin:/usr/mpi/lib:/usr/mpi/include:/usr/lib:/usr/include:/usr/pgi/linux86-64/6.1/bin:/usr/local:/usr/oompi-1.0.4/bin:/usr/mpi/bin:/usr/mpi/lib:/usr/mpi/include:/usr/lib:/usr/include:/usr/pgi/linux86-64/6.1/bin:/usr/local:/usr/kerberos/bin:/usr/local/bin:/bin:/usr/bin:/home/gauss/gdv/bsd:/home/gauss/gdv/local:/home/gauss/gdv/extras:/home/gauss/gdv:/home/gauss/gdv/bsd:/home/gauss/gdv/local:/home/gauss/gdv/extras:/home/gauss/gdv:/usr/X11R6/bin
myenvir[23] is INPUTRC=/etc/inputrc
myenvir[24] is PWD=/home/xsli/TestCode
myenvir[25] is LANG=en_US.UTF-8
myenvir[26] is GAUSS_EXEDIR=/home/gauss/gdv/bsd:/home/gauss/gdv/local:/home/gauss/gdv/extras:/home/gauss/gdv
myenvir[27] is PERLLIB=/home/gauss/gdv/bsd:/home/gauss/gdv/bsd
myenvir[28] is PGIDIR=/usr/pgi/linux86-64/6.1
myenvir[29] is LM_LICENSE_FILE=/usr/pgi/license.dat
myenvir[30] is LINDA_FORTRAN=pgf77 -i8 -mcmodel=medium
myenvir[31] is SSH_ASKPASS=/usr/libexec/openssh/gnome-ssh-askpass
myenvir[32] is _RLD_ARGS=-log /dev/null
myenvir[33] is SHLVL=2
myenvir[34] is HOME=/home/xsli
myenvir[35] is OSTYPE=linux
myenvir[36] is POSTFL_FORTRAN=pgf77 -i8 -mcmodel=medium
myenvir[37] is VENDOR=unknown
myenvir[38] is GV_DIR=/home/gauss/gv
myenvir[39] is MACHTYPE=x86_64
myenvir[40] is LOGNAME=xsli
myenvir[41] is SSH_CONNECTION=::ffff:192.168.0.110 3447 ::ffff:192.168.0.111 22
myenvir[42] is LESSOPEN=|/usr/bin/lesspipe.sh %s
myenvir[43] is DISPLAY=localhost:11.0
myenvir[44] is GDVBASIS=/home/gauss/gdv/basis
myenvir[45] is G_BROKEN_FILENAMES=1
myenvir[46] is GAUSS_LEXEDIR=/home/gauss/gdv/linda-exe
myenvir[47] is _=/home/gauss/gdv/l1.exe
myenvir[48] is MPC_GANG=OFF
myenvir[49] is GAUSS_NPROC=1
myenvir[50] is OMP_NUM_THREADS=1
myenvir[51] is NCPUS=1
myenvir[52] is GAUSS_NPROCL=1
 Contents of /IOp/:
        123456            0            0            0            0
             3            0            2            0            0
             9            0            0            0            0
             1            0            0            0            0
             0            0            0            0            1
             0            0            0            0            1
             0            0            0            0            0
             0            0            0            0            0
             0            0            0            0            0
             0            0       100000            0            0
             0            0            0            0            0
             0            0            0            0            0
             0            0            0            0            0
             0            0            0            0            0
             0            0            0            0            0
             0            0            0            0            0
             0            0            0            0            0
             0            0            0            0            0
             0            0            0            0            0
             0            0            0            0            0
             0            0            0            0            0
             0            0            0            0            0
             0            0            0            0            0
             0            0            0            0            0
             0            0            0            0            0
             0            0            0            0            0
             0            0            0            0            0
             0            0            0            0            0
             0            0            0            0            0
             0            0            0            0            0
             0            0            0            0            0
             0            0            0            0            0
             0            0            0            0            0
             0            0            0            0            0
             0            0            0            0            0
             0            0            0            0            0
             0            0            0            0            0
             0            0            0            0            0
             0            0            0            0            0
             0            0            0            0            0
 Contents of /Info/:
      524     509       0       0       0     101       1       1       2
 HF\STO-3G\                                                                      
                                                                                 
                                                                                 
                                                                                 
                                                                                 
                                                                                 
                                                                                 
                                                                                 
                                                                                 
                                                                                 
                                                                                 
                                                                                 
                                                                                 
                                                                                 
                                                                                 
                                                                                 
                                                                                 
                                                                                 
                                                                                 
         
 (Enter ./l302.exe)
 Top of link  302.    Mon May 15 09:14:50 2006        0.00 cpu seconds.
 IOp(1)=   123456 DoDFJ is returning F
 NPDir=0 NMtPBC=     1 NCelOv=     1 NCel=       1 NClECP=     1 NCelD=      1
         NCelK=      1 NCelE2=     1 NClLst=     1 CellRange=     0.0.
 One-electron integrals computed using PRISM.
 Top of Prism.        Mon May 15 09:15:02 2006       11.50 cpu seconds.
 End of Prism.        Mon May 15 09:15:03 2006        0.99 cpu seconds.
 xsli test   3360.638384009129        129772.4296331352     
 After ST integrals.  Mon May 15 09:15:03 2006        0.14 cpu seconds.
 Top of Prism.        Mon May 15 09:15:06 2006        3.05 cpu seconds.
 End of Prism.        Mon May 15 09:15:34 2006       28.08 cpu seconds.
 After V integrals.   Mon May 15 09:15:34 2006        0.03 cpu seconds.
 xsli test   173890797.6752529     
 After STV Ints       Mon May 15 09:15:34 2006        0.20 cpu seconds.
 After integral evalu Mon May 15 09:15:34 2006        0.00 cpu seconds.
 Top of SVDSVc.       Mon May 15 09:15:34 2006        0.02 cpu seconds.
