d                                                                       
SP        RHF                                                         STO-3G              
Number of atoms                            I                2
Info1-9                                    I   N=           9
          25           9           0           0           0         111
           1           1           2
Charge                                     I                0
Multiplicity                               I                1
Number of electrons                        I               12
Number of alpha electrons                  I                6
Number of beta electrons                   I                6
Number of basis functions                  I               10
Number of independent functions            I               10
Number of point charges in /Mol/           I                0
Number of translation vectors              I                0
Atomic numbers                             I   N=           2
           6           6
Nuclear charges                            R   N=           2
  6.00000000E+00  6.00000000E+00
Current cartesian coordinates              R   N=           6
  0.00000000E+00  1.88972612E-01  0.00000000E+00  1.88972612E+00  0.00000000E+00
  2.83458919E-01
Force Field                                I                0
Int Atom Types                             I   N=           2
           0           0
MM charges                                 R   N=           2
  0.00000000E+00  0.00000000E+00
Integer atomic weights                     I   N=           2
          12          12
Real atomic weights                        R   N=           2
  1.20000000E+01  1.20000000E+01
Atom fragment info                         I   N=           2
           0           0
Atom residue num                           I   N=           2
           0           0
Nuclear spins                              I   N=           2
           0           0
Nuclear ZEff                               R   N=           2
 -3.60000000E+00 -3.60000000E+00
Nuclear ZNuc                               R   N=           2
  6.00000000E+00  6.00000000E+00
Nuclear QMom                               R   N=           2
  0.00000000E+00  0.00000000E+00
Nuclear GFac                               R   N=           2
  0.00000000E+00  0.00000000E+00
MicOpt                                     I   N=           2
          -1          -1
Number of contracted shells                I                4
Number of primitive shells                 I               12
Pure/Cartesian d shells                    I                1
Pure/Cartesian f shells                    I                0
Highest angular momentum                   I                1
Largest degree of contraction              I                3
Shell types                                I   N=           4
           0          -1           0          -1
Number of primitives per shell             I   N=           4
           3           3           3           3
Shell to atom map                          I   N=           4
           1           1           2           2
Primitive exponents                        R   N=          12
  7.16168373E+01  1.30450963E+01  3.53051216E+00  2.94124936E+00  6.83483096E-01
  2.22289916E-01  7.16168373E+01  1.30450963E+01  3.53051216E+00  2.94124936E+00
  6.83483096E-01  2.22289916E-01
Contraction coefficients                   R   N=          12
  1.54328967E-01  5.35328142E-01  4.44634542E-01 -9.99672292E-02  3.99512826E-01
  7.00115469E-01  1.54328967E-01  5.35328142E-01  4.44634542E-01 -9.99672292E-02
  3.99512826E-01  7.00115469E-01
P(S=P) Contraction coefficients            R   N=          12
  0.00000000E+00  0.00000000E+00  0.00000000E+00  1.55916275E-01  6.07683719E-01
  3.91957393E-01  0.00000000E+00  0.00000000E+00  0.00000000E+00  1.55916275E-01
  6.07683719E-01  3.91957393E-01
Coordinates of each shell                  R   N=          12
  0.00000000E+00  1.88972612E-01  0.00000000E+00  0.00000000E+00  1.88972612E-01
  0.00000000E+00  1.88972612E+00  0.00000000E+00  2.83458919E-01  1.88972612E+00
  0.00000000E+00  2.83458919E-01
Num ILSW                                   I              100
ILSW                                       I   N=         100
           0           1           0           0           2           0
           0           0           0           0           0          -1
           0           0           0           0           0           0
           0           0           0           0           0           0
           1           1           0           0           0           0
           0           0      100000           0          -1           0
           0           0           0           0           0           0
           0           0           0           1           0           0
           0           0           1           0           0           0
           0           0           4          42           0           0
           0           0           0           0           0           0
           0           0           0           2           0           0
           0           0           0           0           0           0
           0           0           0           0           0           0
           0           0           0           0           0           0
           0           0           0           0           0           0
           0           0           0           0
Num RLSW                                   I               42
RLSW                                       R   N=          42
  1.00000000E+00  1.00000000E+00  1.00000000E+00  1.00000000E+00  1.00000000E+00
  0.00000000E+00  0.00000000E+00  1.00000000E+00  0.00000000E+00  0.00000000E+00
  0.00000000E+00  0.00000000E+00  1.00000000E+00  0.00000000E+00  0.00000000E+00
  0.00000000E+00  0.00000000E+00  1.00000000E+00  0.00000000E+00  0.00000000E+00
  0.00000000E+00  0.00000000E+00  1.00000000E+00  0.00000000E+00  0.00000000E+00
  0.00000000E+00  0.00000000E+00  1.00000000E+00  0.00000000E+00  0.00000000E+00
  0.00000000E+00  0.00000000E+00  1.00000000E+00  0.00000000E+00  0.00000000E+00
  0.00000000E+00  0.00000000E+00  0.00000000E+00  1.00000000E+00  1.00000000E+00
  0.00000000E+00  1.00000000E+00
MxBond                                     I                1
NBond                                      I   N=           2
           1           1
IBond                                      I   N=           2
           2           1
RBond                                      R   N=           2
  3.00000000E+00  3.00000000E+00
Virial Ratio                               R      1.983476091407483E+00
SCF Energy                                 R     -7.427655417653205E+01
Total Energy                               R     -7.427655417653205E+01
RMS Density                                R      7.822876072769288E-10
Job Status                                 I                1
External E-field                           R   N=          35
  0.00000000E+00  0.00000000E+00  0.00000000E+00  0.00000000E+00  0.00000000E+00
  0.00000000E+00  0.00000000E+00  0.00000000E+00  0.00000000E+00  0.00000000E+00
  0.00000000E+00  0.00000000E+00  0.00000000E+00  0.00000000E+00  0.00000000E+00
  0.00000000E+00  0.00000000E+00  0.00000000E+00  0.00000000E+00  0.00000000E+00
  0.00000000E+00  0.00000000E+00  0.00000000E+00  0.00000000E+00  0.00000000E+00
  0.00000000E+00  0.00000000E+00  0.00000000E+00  0.00000000E+00  0.00000000E+00
  0.00000000E+00  0.00000000E+00  0.00000000E+00  0.00000000E+00  0.00000000E+00
IOpCl                                      I                0
IROHF                                      I                0
Alpha Orbital Energies                     R   N=          10
 -1.11151585E+01 -1.11033319E+01 -1.07567482E+00 -4.76908156E-01 -4.76908156E-01
 -4.02244448E-01  9.75177462E-03  4.47805367E-01  4.47805367E-01  1.64664281E+00
Alpha MO coefficients                      R   N=         100
  7.01182730E-01  1.42922628E-02  4.61902000E-03 -4.61902000E-04  6.92853000E-04
  7.01182730E-01  1.42922628E-02 -4.61902000E-03  4.61902000E-04 -6.92853000E-04
  7.03285795E-01  3.52651355E-02  1.17141474E-02 -1.17141474E-03  1.75712211E-03
 -7.03285795E-01 -3.52651355E-02  1.17141474E-02 -1.17141474E-03  1.75712211E-03
 -2.16830794E-01  4.83200564E-01  2.20286910E-01 -2.20286910E-02  3.30430365E-02
 -2.16830794E-01  4.83200564E-01 -2.20286910E-01  2.20286910E-02 -3.30430365E-02
 -5.90525811E-13  6.08425639E-13 -1.02855978E-01 -2.01083875E-01  5.51650603E-01
  5.91030506E-13 -6.08134909E-13 -1.02855978E-01 -2.01083875E-01  5.51650603E-01
  2.08316025E-13 -3.12781688E-12  2.46058314E-02  5.58082667E-01  2.08016236E-01
 -2.08362131E-13  3.12820338E-12  2.46058314E-02  5.58082667E-01  2.08016236E-01
 -1.74442374E-01  7.14231899E-01 -3.19212776E-01  3.19212776E-02 -4.78819164E-02
  1.74442374E-01 -7.14231899E-01 -3.19212776E-01  3.19212776E-02 -4.78819164E-02
  3.51297646E-02 -3.88497897E-01  6.35441792E-01 -6.35441792E-02  9.53162687E-02
  3.51297646E-02 -3.88497897E-01 -6.35441792E-01  6.35441792E-02 -9.53162687E-02
 -2.11180412E-12  1.75140572E-12  1.03696164E-01  9.08441143E-01 -8.56803303E-02
 -2.11253447E-12  1.75525914E-12 -1.03696164E-01 -9.08441143E-01  8.56803303E-02
  2.44769856E-13 -7.45398740E-13 -1.25672292E-01  9.96287326E-02  9.04234435E-01
  2.43967236E-13 -7.39705461E-13  1.25672292E-01 -9.96287326E-02 -9.04234435E-01
 -1.06859725E-01  2.21140967E+00  1.63159597E+00 -1.63159597E-01  2.44739395E-01
  1.06859725E-01 -2.21140967E+00  1.63159597E+00 -1.63159597E-01  2.44739395E-01
Total SCF Density                          R   N=          55
  2.12742773E+00 -3.89084228E-01  1.49011578E+00  3.87928389E-02 -2.42140142E-01
  3.23532949E-01 -3.87928388E-03  2.42140142E-02  3.87131980E-02  7.06793610E-01
  5.81892583E-03 -3.63210213E-02 -5.80697970E-02  5.80697970E-03  7.01954460E-01
  2.72635256E-02  1.00791302E-02 -2.16897673E-01  2.16897673E-02 -3.25346510E-02
  2.12742773E+00  1.00791302E-02 -5.55367563E-01  6.68175243E-01 -6.68175243E-02
  1.00226286E-01 -3.89084228E-01  1.49011578E+00  2.16897673E-01 -6.68175243E-01
  1.29342318E-01  5.81322612E-02 -8.71983918E-02 -3.87928389E-02  2.42140142E-01
  3.23532949E-01 -2.16897673E-02  6.68175243E-02  5.81322612E-02  7.04851704E-01
  8.71983918E-03  3.87928388E-03 -2.42140142E-02  3.87131980E-02  7.06793610E-01
  3.25346510E-02 -1.00226286E-01 -8.71983918E-02  8.71983918E-03  6.97585171E-01
 -5.81892583E-03  3.63210213E-02 -5.80697970E-02  5.80697970E-03  7.01954460E-01
Mulliken Charges                           R   N=           2
 -7.56616991E-13  7.22977234E-13
ONIOM Charges                              I   N=          16
           0           0           0           0           0           0
           0           0           0           0           0           0
           0           0           0           0
ONIOM Multiplicities                       I   N=          16
           1           0           0           0           0           0
           0           0           0           0           0           0
           0           0           0           0
Atom Layers                                I   N=           2
           1           1
Atom Modifiers                             I   N=           2
           0           0
Force Field                                I                0
Int Atom Modified Types                    I   N=           2
           0           0
Link Atoms                                 I   N=           2
           0           0
Atom Modified MM Charges                   R   N=           2
  0.00000000E+00  0.00000000E+00
Link Distances                             R   N=           8
  0.00000000E+00  0.00000000E+00  0.00000000E+00  0.00000000E+00  0.00000000E+00
  0.00000000E+00  0.00000000E+00  0.00000000E+00
Cartesian Gradient                         R   N=           6
  0.00000000E+00  0.00000000E+00  0.00000000E+00  0.00000000E+00  0.00000000E+00
  0.00000000E+00
Dipole Moment                              R   N=           3
  1.67688086E-12 -1.78523862E-13  2.43360887E-13
Quadrupole Moment                          R   N=           6
  1.03360930E+00 -5.26654804E-01 -5.06954499E-01 -1.57602435E-01  2.36403653E-01
 -2.36403653E-02
QEq coupling tensors                       R   N=          12
 -1.09477856E+00  1.66929387E-01  5.57822367E-01 -2.50394080E-01  2.50394080E-02
  5.36956194E-01 -1.09477856E+00  1.66929387E-01  5.57822367E-01 -2.50394080E-01
  2.50394080E-02  5.36956194E-01
