 Entering Gaussian System, Link 0=gdv
 Input=4.com
 Output=4.log
 Initial command:
 /Volumes/Gaussian/gdvh37p/gdv/l1.exe "/Users/xsli/Chronus/Gau-5295.inp" -scrdir="/Users/xsli/Chronus/"
 Entering Link 1 = /Volumes/Gaussian/gdvh37p/gdv/l1.exe PID=      5296.
  
 Copyright (c) 1988,1990,1992,1993,1995,1998,2003,2009,2014,
            Gaussian, Inc.  All Rights Reserved.
  
 This is the private, development version of
 the Gaussian(R) DV system of programs. It is based on
 the Gaussian(R) 09 system (copyright 2009, Gaussian, Inc.),
 the Gaussian(R) 03 system (copyright 2003, Gaussian, Inc.),
 the Gaussian(R) 98 system (copyright 1998, Gaussian, Inc.),
 the Gaussian(R) 94 system (copyright 1995, Gaussian, Inc.),
 the Gaussian 92(TM) system (copyright 1992, Gaussian, Inc.),
 the Gaussian 90(TM) system (copyright 1990, Gaussian, Inc.),
 the Gaussian 88(TM) system (copyright 1988, Gaussian, Inc.),
 the Gaussian 86(TM) system (copyright 1986, Carnegie Mellon
 University), and the Gaussian 82(TM) system (copyright 1983,
 Carnegie Mellon University). Gaussian is a federally registered
 trademark of Gaussian, Inc.
  
 This software contains proprietary and confidential information,
 including trade secrets, belonging to Gaussian, Inc.
  
 This software is provided under written license and may be
 used, copied, transmitted, or stored only in accord with that
 written license.
  
 The following legend is applicable only to US Government
 contracts under FAR:
  
                    RESTRICTED RIGHTS LEGEND
  
 Use, reproduction and disclosure by the US Government is
 subject to restrictions as set forth in subparagraphs (a)
 and (c) of the Commercial Computer Software - Restricted
 Rights clause in FAR 52.227-19.
  
 Gaussian, Inc.
 340 Quinnipiac St., Bldg. 40, Wallingford CT 06492
  
  
 ---------------------------------------------------------------
 Warning -- This program may not be used in any manner that
 competes with the business of Gaussian, Inc. or will provide
 assistance to any competitor of Gaussian, Inc.  The licensee
 of this program is prohibited from giving any competitor of
 Gaussian, Inc. access to this program.  By using this program,
 the user acknowledges that Gaussian, Inc. is engaged in the
 business of creating and licensing software in the field of
 computational chemistry and represents and warrants to the
 licensee that it is not a competitor of Gaussian, Inc. and that
 it will not use this program in any manner prohibited above.
 ---------------------------------------------------------------
  

 Cite this work as:
 Gaussian Development Version, Revision H.37+,
 M. J. Frisch, G. W. Trucks, H. B. Schlegel, G. E. Scuseria, 
 M. A. Robb, J. R. Cheeseman, G. Scalmani, V. Barone, B. Mennucci, 
 G. A. Petersson, H. Nakatsuji, M. Caricato, X. Li, H. P. Hratchian, 
 A. F. Izmaylov, J. Bloino, B. G. Janesko, F. Lipparini, G. Zheng, 
 J. L. Sonnenberg, W. Liang, M. Hada, M. Ehara, K. Toyota, R. Fukuda, 
 J. Hasegawa, M. Ishida, T. Nakajima, Y. Honda, O. Kitao, H. Nakai, 
 T. Vreven, J. A. Montgomery, Jr., J. E. Peralta, F. Ogliaro, 
 M. Bearpark, J. J. Heyd, E. Brothers, K. N. Kudin, V. N. Staroverov, 
 T. Keith, R. Kobayashi, J. Normand, K. Raghavachari, A. Rendell, 
 J. C. Burant, S. S. Iyengar, J. Tomasi, M. Cossi, N. Rega, 
 J. M. Millam, M. Klene, J. E. Knox, J. B. Cross, V. Bakken, 
 C. Adamo, J. Jaramillo, R. Gomperts, R. E. Stratmann, O. Yazyev, 
 A. J. Austin, R. Cammi, C. Pomelli, J. W. Ochterski, R. L. Martin, 
 K. Morokuma, V. G. Zakrzewski, G. A. Voth, P. Salvador, 
 J. J. Dannenberg, S. Dapprich, P. V. Parandekar, N. J. Mayhall, 
 A. D. Daniels, O. Farkas, J. B. Foresman, J. V. Ortiz, 
 J. Cioslowski, and D. J. Fox, Gaussian, Inc., Wallingford CT, 2010.
 
 *******************************************
 Gaussian DV:  EM64M-GDVRevH.37+ 17-Apr-2014
                  7-Dec-2014 
 *******************************************
 %chk=4.chk
 ----------------------------------------------------------------------
 #p hf/sto-3g GFInput nosymm scf=incore 6d scf=tight iop(3/33=10,5/33=1
 0)
 ----------------------------------------------------------------------
 1/38=1,172=1/1;
 2/12=2,15=1,17=6,18=5,40=1/2;
 3/6=3,8=2,11=9,16=1,24=10,25=1,30=1,33=10/1,2,3;
 4//1;
 5/5=3,32=2,33=10,38=5/2;
 6/7=2,8=2,9=2,10=2,28=1/1;
 99/5=1,9=1/99;
 Leave Link    1 at Sun Dec  7 10:45:50 2014, MaxMem=           0 cpu:               0.0 elap:               0.0
 (Enter /Volumes/Gaussian/gdvh37p/gdv/l101.exe)
 -
 d
 -
 Symbolic Z-matrix:
 Charge =  0 Multiplicity = 1
 c                     0.        0.1       0. 
 c                     1.        0.        0.15 
 
 ITRead=  0  0
 MicOpt= -1 -1
 NAtoms=      2 NQM=        2 NQMF=       0 NMMI=      0 NMMIF=      0
                NMic=       0 NMicF=      0.
                    Isotopes and Nuclear Properties:
 (Nuclear quadrupole moments (NQMom) in fm**2, nuclear magnetic moments (NMagM)
  in nuclear magnetons)

  Atom         1           2
 IAtWgt=          12          12
 AtmWgt=  12.0000000  12.0000000
 NucSpn=           0           0
 AtZEff=   0.0000000   0.0000000
 NQMom=    0.0000000   0.0000000
 NMagM=    0.0000000   0.0000000
 AtZNuc=   6.0000000   6.0000000
 Leave Link  101 at Sun Dec  7 10:45:50 2014, MaxMem=    33554432 cpu:               0.1 elap:               0.1
 (Enter /Volumes/Gaussian/gdvh37p/gdv/l202.exe)
                          Input orientation:                          
 ---------------------------------------------------------------------
 Center     Atomic      Atomic             Coordinates (Angstroms)
 Number     Number       Type             X           Y           Z
 ---------------------------------------------------------------------
      1          6           0        0.000000    0.100000    0.000000
      2          6           0        1.000000    0.000000    0.150000
 ---------------------------------------------------------------------
 Symmetry turned off by external request.
 Stoichiometry    C2
 Framework group  D*H[C*(C.C)]
 Deg. of freedom     1
 Full point group                 D*H     NOp   8
 Rotational constants (GHZ):      0.0000000     81.5785326     81.5785326
 Leave Link  202 at Sun Dec  7 10:45:51 2014, MaxMem=    33554432 cpu:               0.0 elap:               0.0
 (Enter /Volumes/Gaussian/gdvh37p/gdv/l301.exe)
 Standard basis: STO-3G (6D, 7F)
                         Coordinates in L301:                         
 ---------------------------------------------------------------------
 Center     Atomic      Atomic             Coordinates (Angstroms)
 Number     Number       Type             X           Y           Z
 ---------------------------------------------------------------------
      1          6           0        0.000000    0.100000    0.000000
      2          6           0        1.000000    0.000000    0.150000
 ---------------------------------------------------------------------
 FixB: optimizing general contractions.
 Ernie: Thresh=  0.10000D-02 Tol=  0.10000D-05 Strict=F.
 IA=     1 ShT= 0 ShC= 0 NL=   1 NS=   0.
         I=   1 JX=   3 NP=   3
 IA=     1 L=0 SC=0 ISt=    0 NBk=    0 NP=    0 IndPr=    0.
 IA=     1 ShT= 1 ShC= 0 NL=   1 NS=   0.
         I=   1 JX=   3 NP=   3
 IA=     1 L=1 SC=0 ISt=    0 NBk=    0 NP=    0 IndPr=    0.
 IA=     2 ShT= 0 ShC= 0 NL=   1 NS=   0.
         I=   1 JX=   3 NP=   3
 IA=     2 L=0 SC=0 ISt=    0 NBk=    0 NP=    0 IndPr=    0.
 IA=     2 ShT= 1 ShC= 0 NL=   1 NS=   0.
         I=   1 JX=   3 NP=   3
 IA=     2 L=1 SC=0 ISt=    0 NBk=    0 NP=    0 IndPr=    0.
 Electric field displacement of shell     1 is  0.00D+00
 Electric field displacement of shell     2 is  0.00D+00
 Electric field displacement of shell     3 is  0.00D+00
 Electric field displacement of shell     4 is  0.00D+00
 AO basis set in the form of general basis input (Overlap normalization):
      1 0
 S   3 1.00       0.000000000000
      0.7161683735D+02  0.1543289673D+00
      0.1304509632D+02  0.5353281423D+00
      0.3530512160D+01  0.4446345422D+00
 SP   3 1.00       0.000000000000
      0.2941249355D+01 -0.9996722919D-01  0.1559162750D+00
      0.6834830964D+00  0.3995128261D+00  0.6076837186D+00
      0.2222899159D+00  0.7001154689D+00  0.3919573931D+00
 ****
      2 0
 S   3 1.00       0.000000000000
      0.7161683735D+02  0.1543289673D+00
      0.1304509632D+02  0.5353281423D+00
      0.3530512160D+01  0.4446345422D+00
 SP   3 1.00       0.000000000000
      0.2941249355D+01 -0.9996722919D-01  0.1559162750D+00
      0.6834830964D+00  0.3995128261D+00  0.6076837186D+00
      0.2222899159D+00  0.7001154689D+00  0.3919573931D+00
 ****

 LdAtmC:  AtmChg=     6.000000     6.000000
 AtZEff=     -3.6000000     -3.6000000
    10 basis functions,    30 primitive gaussians,    10 cartesian basis functions
     6 alpha electrons        6 beta electrons
       nuclear repulsion energy        18.7481579439 Hartrees.
 IS=     1 IAt=     1 ISR=     1 T=0 IP=      1 IndIP=      1 IndIPD=      0 C=  2.707814D+00  0.000000D+00                             NZ=T
 IS=     1 IAt=     1 ISR=     1 T=0 IP=      2 IndIP=      2 IndIPD=      1 C=  2.618880D+00  0.000000D+00                             NZ=T
 IS=     1 IAt=     1 ISR=     1 T=0 IP=      3 IndIP=      3 IndIPD=      2 C=  8.161906D-01  0.000000D+00                             NZ=T
 IS=     2 IAt=     1 ISR=     2 T=1 IP=      1 IndIP=      4 IndIPD=      0 C= -1.600172D-01  8.560445D-01                             NZ=T
 IS=     2 IAt=     1 ISR=     2 T=1 IP=      2 IndIP=      5 IndIPD=      1 C=  2.140359D-01  5.383038D-01                             NZ=T
 IS=     2 IAt=     1 ISR=     2 T=1 IP=      3 IndIP=      6 IndIPD=      2 C=  1.615361D-01  8.527636D-02                             NZ=T
 IS=     3 IAt=     2 ISR=     1 T=0 IP=      1 IndIP=      7 IndIPD=      0 C=  2.707814D+00  0.000000D+00                             NZ=T
 IS=     3 IAt=     2 ISR=     1 T=0 IP=      2 IndIP=      8 IndIPD=      1 C=  2.618880D+00  0.000000D+00                             NZ=T
 IS=     3 IAt=     2 ISR=     1 T=0 IP=      3 IndIP=      9 IndIPD=      2 C=  8.161906D-01  0.000000D+00                             NZ=T
 IS=     4 IAt=     2 ISR=     2 T=1 IP=      1 IndIP=     10 IndIPD=      0 C= -1.600172D-01  8.560445D-01                             NZ=T
 IS=     4 IAt=     2 ISR=     2 T=1 IP=      2 IndIP=     11 IndIPD=      1 C=  2.140359D-01  5.383038D-01                             NZ=T
 IS=     4 IAt=     2 ISR=     2 T=1 IP=      3 IndIP=     12 IndIPD=      2 C=  1.615361D-01  8.527636D-02                             NZ=T
 IExCor=    0 DFT=F Ex=HF Corr=None ExCW=0 ScaHFX=  1.000000
 ScaDFX=  1.000000  1.000000  1.000000  1.000000 ScalE2=  1.000000  1.000000
 IRadAn=      0 IRanWt=     -1 IRanGd=            0 ICorTp=0 IEmpDi=  4
 NAtoms=    2 NActive=    2 NUniq=    2 SFac= 1.00D+00 NAtFMM=   60 NAOKFM=F Big=F
 Integral buffers will be    131072 words long.
 Raffenetti 1 integral format.
 Two-electron integral symmetry is turned off.
 Pair potential:
 Leave Link  301 at Sun Dec  7 10:45:51 2014, MaxMem=    33554432 cpu:               0.0 elap:               0.1
 (Enter /Volumes/Gaussian/gdvh37p/gdv/l302.exe)
 NPDir=0 NMtPBC=     1 NCelOv=     1 NCel=       1 NClECP=     1 NCelD=      1
         NCelK=      1 NCelE2=     1 NClLst=     1 CellRange=     0.0.
 One-electron integrals computed using PRISM.
 One-electron integral symmetry used in STVInt
 Entering OneElI...
 OneElI was handed    33554259 working-precision words.
 Calculate overlap and kinetic energy integrals
    NBasis =  10  MinDer = 0  MaxDer = 0
 Requested accuracy = 0.1000D-12
 ShPair: Thresh= 1.00D-13 NBox=     0 BxSize= 0.00D+00 RnKept= 1.92D+00
         NSMCal=                   10 NSMKep=                  10
  NShlT=       5 NTypes=       3  LenT1=      15  LenC1=       6
  LenT2=       5  LenN2=      92  LenC2=      12 LenP2D=      90
 LenP2C=     207
 IType=       1 ShlT= 0 ShlC= 0 T1C1St=       1
   ISh=       1 C1NPrm=   3 C1ESt=       1 C1CSt=       1
     C1SMap=       1 C1AOS=       1 C1Cent=     1
     CentXYZ=      0.000000      0.188973      0.000000
     IPrm=       1 P1Exp= 7.16D+01 P1CMax= 2.71D+00
     IPrm=       2 P1Exp= 1.30D+01 P1CMax= 2.62D+00
     IPrm=       3 P1Exp= 3.53D+00 P1CMax= 8.16D-01
   ISh=       2 C1NPrm=   3 C1ESt=       4 C1CSt=       4
     C1SMap=       3 C1AOS=       6 C1Cent=     2
     CentXYZ=      1.889726      0.000000      0.283459
     IPrm=       4 P1Exp= 7.16D+01 P1CMax= 2.71D+00
     IPrm=       5 P1Exp= 1.30D+01 P1CMax= 2.62D+00
     IPrm=       6 P1Exp= 3.53D+00 P1CMax= 8.16D-01
 IType=       2 ShlT= 1 ShlC= 0 T1C1St=       3
   ISh=       3 C1NPrm=   3 C1ESt=       7 C1CSt=       7
     C1SMap=       2 C1AOS=       2 C1Cent=     1
     CentXYZ=      0.000000      0.188973      0.000000
     IPrm=       7 P1Exp= 2.94D+00 P1CMax= 8.56D-01
     IPrm=       8 P1Exp= 6.83D-01 P1CMax= 5.38D-01
     IPrm=       9 P1Exp= 2.22D-01 P1CMax= 1.62D-01
   ISh=       4 C1NPrm=   3 C1ESt=      10 C1CSt=      13
     C1SMap=       4 C1AOS=       7 C1Cent=     2
     CentXYZ=      1.889726      0.000000      0.283459
     IPrm=      10 P1Exp= 2.94D+00 P1CMax= 8.56D-01
     IPrm=      11 P1Exp= 6.83D-01 P1CMax= 5.38D-01
     IPrm=      12 P1Exp= 2.22D-01 P1CMax= 1.62D-01
 IType=       3 ShlT= 0 ShlC= 0 T1C1St=       5
   ISh=       5 C1NPrm=   1 C1ESt=      13 C1CSt=      19
     C1SMap=       1 C1AOS=      11 C1Cent=     5
     CentXYZ=      0.000000      0.000000      0.000000
     IPrm=      13 P1Exp= 5.00D-01 P1CMax= 1.00D+00
 IJTC=   1 IType= 1 JType= 1 T2N2St=     1
   IJTN=   1 NPrm=     9     0 C2St=     1 PDSt=     1 PCSt=     1
   IJTN=   2 NPrm=     9     0 C2St=     1 PDSt=     1 PCSt=     1
     IJShl=     1 C2ShlIJ=     1     1 C2CelJ=     1 C2LocIJ=   1   1 C2FPrm=     9 C2KMax= 0.16D+01 0.62D+04
       C2CDif=      0.000000      0.000000      0.000000
       IJP=       1 A= 0.143234D+03 B= 0.143234D+03 U= 0.238174D-01
                    C= 0.100000D+01
         P2P=   0.000000D+00 0.188973D+00 0.000000D+00
         P2PMA= 0.000000D+00 0.000000D+00 0.000000D+00
         P2PMB= 0.000000D+00 0.000000D+00 0.000000D+00
       IJP=       2 A= 0.143234D+03 B= 0.260902D+02 U= 0.506906D-01
                    C= 0.100000D+01
         P2P=   0.000000D+00 0.188973D+00 0.000000D+00
         P2PMA= 0.000000D+00 0.000000D+00 0.000000D+00
         P2PMB= 0.000000D+00 0.000000D+00 0.000000D+00
       IJP=       3 A= 0.143234D+03 B= 0.706102D+01 U= 0.188914D-01
                    C= 0.100000D+01
         P2P=   0.000000D+00 0.188973D+00 0.000000D+00
         P2PMA= 0.000000D+00 0.000000D+00 0.000000D+00
         P2PMB= 0.000000D+00 0.000000D+00 0.000000D+00
       IJP=       4 A= 0.260902D+02 B= 0.143234D+03 U= 0.506906D-01
                    C= 0.100000D+01
         P2P=   0.000000D+00 0.188973D+00 0.000000D+00
         P2PMA= 0.000000D+00 0.000000D+00 0.000000D+00
         P2PMB= 0.000000D+00 0.000000D+00 0.000000D+00
       IJP=       5 A= 0.260902D+02 B= 0.260902D+02 U= 0.286576D+00
                    C= 0.100000D+01
         P2P=   0.000000D+00 0.188973D+00 0.000000D+00
         P2PMA= 0.000000D+00 0.000000D+00 0.000000D+00
         P2PMB= 0.000000D+00 0.000000D+00 0.000000D+00
       IJP=       6 A= 0.260902D+02 B= 0.706102D+01 U= 0.176371D+00
                    C= 0.100000D+01
         P2P=   0.000000D+00 0.188973D+00 0.000000D+00
         P2PMA= 0.000000D+00 0.000000D+00 0.000000D+00
         P2PMB= 0.000000D+00 0.000000D+00 0.000000D+00
       IJP=       7 A= 0.706102D+01 B= 0.143234D+03 U= 0.188914D-01
                    C= 0.100000D+01
         P2P=   0.000000D+00 0.188973D+00 0.000000D+00
         P2PMA= 0.000000D+00 0.000000D+00 0.000000D+00
         P2PMB= 0.000000D+00 0.000000D+00 0.000000D+00
       IJP=       8 A= 0.706102D+01 B= 0.260902D+02 U= 0.176371D+00
                    C= 0.100000D+01
         P2P=   0.000000D+00 0.188973D+00 0.000000D+00
         P2PMA= 0.000000D+00 0.000000D+00 0.000000D+00
         P2PMB= 0.000000D+00 0.000000D+00 0.000000D+00
       IJP=       9 A= 0.706102D+01 B= 0.706102D+01 U= 0.197700D+00
                    C= 0.100000D+01
         P2P=   0.000000D+00 0.188973D+00 0.000000D+00
         P2PMA= 0.000000D+00 0.000000D+00 0.000000D+00
         P2PMB= 0.000000D+00 0.000000D+00 0.000000D+00
     IJShl=     2 C2ShlIJ=     2     2 C2CelJ=     1 C2LocIJ=   1   1 C2FPrm=     9 C2KMax= 0.16D+01 0.62D+04
       C2CDif=      0.000000      0.000000      0.000000
       IJP=      10 A= 0.143234D+03 B= 0.143234D+03 U= 0.238174D-01
                    C= 0.100000D+01
         P2P=   0.188973D+01 0.000000D+00 0.283459D+00
         P2PMA= 0.000000D+00 0.000000D+00 0.000000D+00
         P2PMB= 0.000000D+00 0.000000D+00 0.000000D+00
       IJP=      11 A= 0.143234D+03 B= 0.260902D+02 U= 0.506906D-01
                    C= 0.100000D+01
         P2P=   0.188973D+01 0.000000D+00 0.283459D+00
         P2PMA= 0.000000D+00 0.000000D+00 0.000000D+00
         P2PMB= 0.000000D+00 0.000000D+00 0.000000D+00
       IJP=      12 A= 0.143234D+03 B= 0.706102D+01 U= 0.188914D-01
                    C= 0.100000D+01
         P2P=   0.188973D+01 0.000000D+00 0.283459D+00
         P2PMA= 0.000000D+00 0.000000D+00 0.000000D+00
         P2PMB= 0.000000D+00 0.000000D+00 0.000000D+00
       IJP=      13 A= 0.260902D+02 B= 0.143234D+03 U= 0.506906D-01
                    C= 0.100000D+01
         P2P=   0.188973D+01 0.000000D+00 0.283459D+00
         P2PMA= 0.000000D+00 0.000000D+00 0.000000D+00
         P2PMB= 0.000000D+00 0.000000D+00 0.000000D+00
       IJP=      14 A= 0.260902D+02 B= 0.260902D+02 U= 0.286576D+00
                    C= 0.100000D+01
         P2P=   0.188973D+01 0.000000D+00 0.283459D+00
         P2PMA= 0.000000D+00 0.000000D+00 0.000000D+00
         P2PMB= 0.000000D+00 0.000000D+00 0.000000D+00
       IJP=      15 A= 0.260902D+02 B= 0.706102D+01 U= 0.176371D+00
                    C= 0.100000D+01
         P2P=   0.188973D+01 0.000000D+00 0.283459D+00
         P2PMA= 0.000000D+00 0.000000D+00 0.000000D+00
         P2PMB= 0.000000D+00 0.000000D+00 0.000000D+00
       IJP=      16 A= 0.706102D+01 B= 0.143234D+03 U= 0.188914D-01
                    C= 0.100000D+01
         P2P=   0.188973D+01 0.000000D+00 0.283459D+00
         P2PMA= 0.000000D+00 0.000000D+00 0.000000D+00
         P2PMB= 0.000000D+00 0.000000D+00 0.000000D+00
       IJP=      17 A= 0.706102D+01 B= 0.260902D+02 U= 0.176371D+00
                    C= 0.100000D+01
         P2P=   0.188973D+01 0.000000D+00 0.283459D+00
         P2PMA= 0.000000D+00 0.000000D+00 0.000000D+00
         P2PMB= 0.000000D+00 0.000000D+00 0.000000D+00
       IJP=      18 A= 0.706102D+01 B= 0.706102D+01 U= 0.197700D+00
                    C= 0.100000D+01
         P2P=   0.188973D+01 0.000000D+00 0.283459D+00
         P2PMA= 0.000000D+00 0.000000D+00 0.000000D+00
         P2PMB= 0.000000D+00 0.000000D+00 0.000000D+00
   IJTN=   3 NPrm=     8     0 C2St=     3 PDSt=    19 PCSt=    19
   IJTN=   4 NPrm=     8     0 C2St=     3 PDSt=    19 PCSt=    19
     IJShl=     3 C2ShlIJ=     2     1 C2CelJ=     1 C2LocIJ=   1   1 C2FPrm=     9 C2KMax= 0.83D-03 0.41D-01
       C2CDif=      1.889726     -0.188973      0.283459
       IJP=      19 A= 0.143234D+03 B= 0.260902D+02 U= 0.108275D-18
                    C= 0.100000D+01
         P2P=   0.159855D+01 0.291178D-01 0.239782D+00
         P2PMA= 0.270672D+03-0.270672D+02 0.406009D+02
         P2PMB=-0.493033D+02 0.493033D+01-0.739550D+01
       IJP=      20 A= 0.143234D+03 B= 0.706102D+01 U= 0.773512D-07
                    C= 0.100000D+01
         P2P=   0.180094D+01 0.887816D-02 0.270142D+00
         P2PMA= 0.270672D+03-0.270672D+02 0.406009D+02
         P2PMB=-0.133434D+02 0.133434D+01-0.200151D+01
       IJP=      21 A= 0.260902D+02 B= 0.143234D+03 U= 0.108275D-18
                    C= 0.100000D+01
         P2P=   0.291178D+00 0.159855D+00 0.436766D-01
         P2PMA= 0.493033D+02-0.493033D+01 0.739550D+01
         P2PMB=-0.270672D+03 0.270672D+02-0.406009D+02
       IJP=      22 A= 0.260902D+02 B= 0.260902D+02 U= 0.102967D-10
                    C= 0.100000D+01
         P2P=   0.944863D+00 0.944863D-01 0.141729D+00
         P2PMA= 0.493033D+02-0.493033D+01 0.739550D+01
         P2PMB=-0.493033D+02 0.493033D+01-0.739550D+01
       IJP=      23 A= 0.260902D+02 B= 0.706102D+01 U= 0.626858D-05
                    C= 0.100000D+01
         P2P=   0.148722D+01 0.402501D-01 0.223084D+00
         P2PMA= 0.493033D+02-0.493033D+01 0.739550D+01
         P2PMB=-0.133434D+02 0.133434D+01-0.200151D+01
       IJP=      24 A= 0.706102D+01 B= 0.143234D+03 U= 0.773512D-07
                    C= 0.100000D+01
         P2P=   0.887816D-01 0.180094D+00 0.133172D-01
         P2PMA= 0.133434D+02-0.133434D+01 0.200151D+01
         P2PMB=-0.270672D+03 0.270672D+02-0.406009D+02
       IJP=      25 A= 0.706102D+01 B= 0.260902D+02 U= 0.626858D-05
                    C= 0.100000D+01
         P2P=   0.402501D+00 0.148722D+00 0.603752D-01
         P2PMA= 0.133434D+02-0.133434D+01 0.200151D+01
         P2PMB=-0.493033D+02 0.493033D+01-0.739550D+01
       IJP=      26 A= 0.706102D+01 B= 0.706102D+01 U= 0.294650D-03
                    C= 0.100000D+01
         P2P=   0.944863D+00 0.944863D-01 0.141729D+00
         P2PMA= 0.133434D+02-0.133434D+01 0.200151D+01
         P2PMB=-0.133434D+02 0.133434D+01-0.200151D+01
 IJTC=   2 IType= 2 JType= 1 T2N2St=     5
   IJTN=   5 NPrm=     9     0 C2St=     4 PDSt=    27 PCSt=    27
   IJTN=   6 NPrm=     9     0 C2St=     4 PDSt=    27 PCSt=    27
     IJShl=     4 C2ShlIJ=     3     1 C2CelJ=     1 C2LocIJ=   1   1 C2FPrm=     9 C2KMax= 0.83D+00 0.10D+04
       C2CDif=      0.000000      0.000000      0.000000
       IJP=      27 A= 0.588250D+01 B= 0.143234D+03 U= 0.134454D-03
                    C=-0.278737D+02 0.100000D+01
         P2P=   0.000000D+00 0.188973D+00 0.000000D+00
         P2PMA= 0.000000D+00 0.000000D+00 0.000000D+00
         P2PMB= 0.000000D+00 0.000000D+00 0.000000D+00
       IJP=      28 A= 0.588250D+01 B= 0.260902D+02 U= 0.610849D-02
                    C=-0.278737D+02 0.100000D+01
         P2P=   0.000000D+00 0.188973D+00 0.000000D+00
         P2PMA= 0.000000D+00 0.000000D+00 0.000000D+00
         P2PMB= 0.000000D+00 0.000000D+00 0.000000D+00
       IJP=      29 A= 0.588250D+01 B= 0.706102D+01 U= 0.182569D-01
                    C=-0.278737D+02 0.100000D+01
         P2P=   0.000000D+00 0.188973D+00 0.000000D+00
         P2PMA= 0.000000D+00 0.000000D+00 0.000000D+00
         P2PMB= 0.000000D+00 0.000000D+00 0.000000D+00
       IJP=      30 A= 0.136697D+01 B= 0.143234D+03 U= 0.913042D-04
                    C=-0.278737D+02 0.100000D+01
         P2P=   0.000000D+00 0.188973D+00 0.000000D+00
         P2PMA= 0.000000D+00 0.000000D+00 0.000000D+00
         P2PMB= 0.000000D+00 0.000000D+00 0.000000D+00
       IJP=      31 A= 0.136697D+01 B= 0.260902D+02 U= 0.562049D-02
                    C=-0.278737D+02 0.100000D+01
         P2P=   0.000000D+00 0.188973D+00 0.000000D+00
         P2PMA= 0.000000D+00 0.000000D+00 0.000000D+00
         P2PMB= 0.000000D+00 0.000000D+00 0.000000D+00
       IJP=      32 A= 0.136697D+01 B= 0.706102D+01 U= 0.335567D-01
                    C=-0.278737D+02 0.100000D+01
         P2P=   0.000000D+00 0.188973D+00 0.000000D+00
         P2PMA= 0.000000D+00 0.000000D+00 0.000000D+00
         P2PMB= 0.000000D+00 0.000000D+00 0.000000D+00
       IJP=      33 A= 0.444580D+00 B= 0.143234D+03 U= 0.146974D-04
                    C=-0.278737D+02 0.100000D+01
         P2P=   0.000000D+00 0.188973D+00 0.000000D+00
         P2PMA= 0.000000D+00 0.000000D+00 0.000000D+00
         P2PMB= 0.000000D+00 0.000000D+00 0.000000D+00
       IJP=      34 A= 0.444580D+00 B= 0.260902D+02 U= 0.969785D-03
                    C=-0.278737D+02 0.100000D+01
         P2P=   0.000000D+00 0.188973D+00 0.000000D+00
         P2PMA= 0.000000D+00 0.000000D+00 0.000000D+00
         P2PMB= 0.000000D+00 0.000000D+00 0.000000D+00
       IJP=      35 A= 0.444580D+00 B= 0.706102D+01 U= 0.710274D-02
                    C=-0.278737D+02 0.100000D+01
         P2P=   0.000000D+00 0.188973D+00 0.000000D+00
         P2PMA= 0.000000D+00 0.000000D+00 0.000000D+00
         P2PMB= 0.000000D+00 0.000000D+00 0.000000D+00
     IJShl=     5 C2ShlIJ=     3     2 C2CelJ=     1 C2LocIJ=   1   1 C2FPrm=     9 C2KMax= 0.96D-01 0.82D+02
       C2CDif=     -1.889726      0.188973     -0.283459
       IJP=      36 A= 0.588250D+01 B= 0.143234D+03 U= 0.402305D-08
                    C=-0.597654D+01 0.100000D+01
         P2P=   0.181518D+01 0.745480D-02 0.272277D+00
         P2PMA=-0.111163D+02 0.111163D+01-0.166745D+01
         P2PMB= 0.270672D+03-0.270672D+02 0.406009D+02
       IJP=      37 A= 0.588250D+01 B= 0.260902D+02 U= 0.876302D-06
                    C=-0.597654D+01 0.100000D+01
         P2P=   0.154204D+01 0.347681D-01 0.231307D+00
         P2PMA=-0.111163D+02 0.111163D+01-0.166745D+01
         P2PMB= 0.493033D+02-0.493033D+01 0.739550D+01
       IJP=      38 A= 0.588250D+01 B= 0.706102D+01 U= 0.492154D-04
                    C=-0.597654D+01 0.100000D+01
         P2P=   0.103089D+01 0.858832D-01 0.154634D+00
         P2PMA=-0.111163D+02 0.111163D+01-0.166745D+01
         P2PMB= 0.133434D+02-0.133434D+01 0.200151D+01
       IJP=      39 A= 0.136697D+01 B= 0.143234D+03 U= 0.752276D-05
                    C=-0.597654D+01 0.100000D+01
         P2P=   0.187186D+01 0.178643D-02 0.280779D+00
         P2PMA=-0.258319D+01 0.258319D+00-0.387479D+00
         P2PMB= 0.270672D+03-0.270672D+02 0.406009D+02
       IJP=      40 A= 0.136697D+01 B= 0.260902D+02 U= 0.512628D-03
                    C=-0.597654D+01 0.100000D+01
         P2P=   0.179565D+01 0.940808D-02 0.269347D+00
         P2PMA=-0.258319D+01 0.258319D+00-0.387479D+00
         P2PMB= 0.493033D+02-0.493033D+01 0.739550D+01
       IJP=      41 A= 0.136697D+01 B= 0.706102D+01 U= 0.406287D-02
                    C=-0.597654D+01 0.100000D+01
         P2P=   0.158322D+01 0.306501D-01 0.237484D+00
         P2PMA=-0.258319D+01 0.258319D+00-0.387479D+00
         P2PMB= 0.133434D+02-0.133434D+01 0.200151D+01
       IJP=      42 A= 0.444580D+00 B= 0.143234D+03 U= 0.649215D-05
                    C=-0.597654D+01 0.100000D+01
         P2P=   0.188388D+01 0.584733D-03 0.282582D+00
         P2PMA=-0.840134D+00 0.840134D-01-0.126020D+00
         P2PMB= 0.270672D+03-0.270672D+02 0.406009D+02
       IJP=      43 A= 0.444580D+00 B= 0.260902D+02 U= 0.433199D-03
                    C=-0.597654D+01 0.100000D+01
         P2P=   0.185806D+01 0.316616D-02 0.278710D+00
         P2PMA=-0.840134D+00 0.840134D-01-0.126020D+00
         P2PMB= 0.493033D+02-0.493033D+01 0.739550D+01
       IJP=      44 A= 0.444580D+00 B= 0.706102D+01 U= 0.328517D-02
                    C=-0.597654D+01 0.100000D+01
         P2P=   0.177779D+01 0.111934D-01 0.266669D+00
         P2PMA=-0.840134D+00 0.840134D-01-0.126020D+00
         P2PMB= 0.133434D+02-0.133434D+01 0.200151D+01
     IJShl=     6 C2ShlIJ=     4     1 C2CelJ=     1 C2LocIJ=   1   1 C2FPrm=     9 C2KMax= 0.96D-01 0.82D+02
       C2CDif=      1.889726     -0.188973      0.283459
       IJP=      45 A= 0.588250D+01 B= 0.143234D+03 U= 0.402305D-08
                    C=-0.241948D+01 0.100000D+01
         P2P=   0.745480D-01 0.181518D+00 0.111822D-01
         P2PMA= 0.111163D+02-0.111163D+01 0.166745D+01
         P2PMB=-0.270672D+03 0.270672D+02-0.406009D+02
       IJP=      46 A= 0.588250D+01 B= 0.260902D+02 U= 0.876302D-06
                    C=-0.241948D+01 0.100000D+01
         P2P=   0.347681D+00 0.154204D+00 0.521522D-01
         P2PMA= 0.111163D+02-0.111163D+01 0.166745D+01
         P2PMB=-0.493033D+02 0.493033D+01-0.739550D+01
       IJP=      47 A= 0.588250D+01 B= 0.706102D+01 U= 0.492154D-04
                    C=-0.241948D+01 0.100000D+01
         P2P=   0.858832D+00 0.103089D+00 0.128825D+00
         P2PMA= 0.111163D+02-0.111163D+01 0.166745D+01
         P2PMB=-0.133434D+02 0.133434D+01-0.200151D+01
       IJP=      48 A= 0.136697D+01 B= 0.143234D+03 U= 0.752276D-05
                    C=-0.241948D+01 0.100000D+01
         P2P=   0.178643D-01 0.187186D+00 0.267965D-02
         P2PMA= 0.258319D+01-0.258319D+00 0.387479D+00
         P2PMB=-0.270672D+03 0.270672D+02-0.406009D+02
       IJP=      49 A= 0.136697D+01 B= 0.260902D+02 U= 0.512628D-03
                    C=-0.241948D+01 0.100000D+01
         P2P=   0.940808D-01 0.179565D+00 0.141121D-01
         P2PMA= 0.258319D+01-0.258319D+00 0.387479D+00
         P2PMB=-0.493033D+02 0.493033D+01-0.739550D+01
       IJP=      50 A= 0.136697D+01 B= 0.706102D+01 U= 0.406287D-02
                    C=-0.241948D+01 0.100000D+01
         P2P=   0.306501D+00 0.158322D+00 0.459752D-01
         P2PMA= 0.258319D+01-0.258319D+00 0.387479D+00
         P2PMB=-0.133434D+02 0.133434D+01-0.200151D+01
       IJP=      51 A= 0.444580D+00 B= 0.143234D+03 U= 0.649215D-05
                    C=-0.241948D+01 0.100000D+01
         P2P=   0.584733D-02 0.188388D+00 0.877099D-03
         P2PMA= 0.840134D+00-0.840134D-01 0.126020D+00
         P2PMB=-0.270672D+03 0.270672D+02-0.406009D+02
       IJP=      52 A= 0.444580D+00 B= 0.260902D+02 U= 0.433199D-03
                    C=-0.241948D+01 0.100000D+01
         P2P=   0.316616D-01 0.185806D+00 0.474924D-02
         P2PMA= 0.840134D+00-0.840134D-01 0.126020D+00
         P2PMB=-0.493033D+02 0.493033D+01-0.739550D+01
       IJP=      53 A= 0.444580D+00 B= 0.706102D+01 U= 0.328517D-02
                    C=-0.241948D+01 0.100000D+01
         P2P=   0.111934D+00 0.177779D+00 0.167901D-01
         P2PMA= 0.840134D+00-0.840134D-01 0.126020D+00
         P2PMB=-0.133434D+02 0.133434D+01-0.200151D+01
     IJShl=     7 C2ShlIJ=     4     2 C2CelJ=     1 C2LocIJ=   1   1 C2FPrm=     9 C2KMax= 0.83D+00 0.10D+04
       C2CDif=      0.000000      0.000000      0.000000
       IJP=      54 A= 0.588250D+01 B= 0.143234D+03 U= 0.134454D-03
                    C= 0.574949D+02 0.100000D+01
         P2P=   0.188973D+01 0.000000D+00 0.283459D+00
         P2PMA= 0.000000D+00 0.000000D+00 0.000000D+00
         P2PMB= 0.000000D+00 0.000000D+00 0.000000D+00
       IJP=      55 A= 0.588250D+01 B= 0.260902D+02 U= 0.610849D-02
                    C= 0.574949D+02 0.100000D+01
         P2P=   0.188973D+01 0.000000D+00 0.283459D+00
         P2PMA= 0.000000D+00 0.000000D+00 0.000000D+00
         P2PMB= 0.000000D+00 0.000000D+00 0.000000D+00
       IJP=      56 A= 0.588250D+01 B= 0.706102D+01 U= 0.182569D-01
                    C= 0.574949D+02 0.100000D+01
         P2P=   0.188973D+01 0.000000D+00 0.283459D+00
         P2PMA= 0.000000D+00 0.000000D+00 0.000000D+00
         P2PMB= 0.000000D+00 0.000000D+00 0.000000D+00
       IJP=      57 A= 0.136697D+01 B= 0.143234D+03 U= 0.913042D-04
                    C= 0.574949D+02 0.100000D+01
         P2P=   0.188973D+01 0.000000D+00 0.283459D+00
         P2PMA= 0.000000D+00 0.000000D+00 0.000000D+00
         P2PMB= 0.000000D+00 0.000000D+00 0.000000D+00
       IJP=      58 A= 0.136697D+01 B= 0.260902D+02 U= 0.562049D-02
                    C= 0.574949D+02 0.100000D+01
         P2P=   0.188973D+01 0.000000D+00 0.283459D+00
         P2PMA= 0.000000D+00 0.000000D+00 0.000000D+00
         P2PMB= 0.000000D+00 0.000000D+00 0.000000D+00
       IJP=      59 A= 0.136697D+01 B= 0.706102D+01 U= 0.335567D-01
                    C= 0.574949D+02 0.100000D+01
         P2P=   0.188973D+01 0.000000D+00 0.283459D+00
         P2PMA= 0.000000D+00 0.000000D+00 0.000000D+00
         P2PMB= 0.000000D+00 0.000000D+00 0.000000D+00
       IJP=      60 A= 0.444580D+00 B= 0.143234D+03 U= 0.146974D-04
                    C= 0.574949D+02 0.100000D+01
         P2P=   0.188973D+01 0.000000D+00 0.283459D+00
         P2PMA= 0.000000D+00 0.000000D+00 0.000000D+00
         P2PMB= 0.000000D+00 0.000000D+00 0.000000D+00
       IJP=      61 A= 0.444580D+00 B= 0.260902D+02 U= 0.969785D-03
                    C= 0.574949D+02 0.100000D+01
         P2P=   0.188973D+01 0.000000D+00 0.283459D+00
         P2PMA= 0.000000D+00 0.000000D+00 0.000000D+00
         P2PMB= 0.000000D+00 0.000000D+00 0.000000D+00
       IJP=      62 A= 0.444580D+00 B= 0.706102D+01 U= 0.710274D-02
                    C= 0.574949D+02 0.100000D+01
         P2P=   0.188973D+01 0.000000D+00 0.283459D+00
         P2PMA= 0.000000D+00 0.000000D+00 0.000000D+00
         P2PMB= 0.000000D+00 0.000000D+00 0.000000D+00
 IJTC=   3 IType= 2 JType= 2 T2N2St=     7
   IJTN=   7 NPrm=     9     0 C2St=     8 PDSt=    63 PCSt=    99
   IJTN=   8 NPrm=     9     0 C2St=     8 PDSt=    63 PCSt=    99
     IJShl=     8 C2ShlIJ=     3     3 C2CelJ=     1 C2LocIJ=   1   1 C2FPrm=     9 C2KMax= 0.13D+01 0.25D+02
       C2CDif=      0.000000      0.000000      0.000000
       IJP=      63 A= 0.588250D+01 B= 0.588250D+01 U= 0.206629D-02
                    C= 0.483642D+01-0.219919D+01-0.219919D+01 0.100000D+01
         P2P=   0.000000D+00 0.188973D+00 0.000000D+00
         P2PMA= 0.000000D+00 0.000000D+00 0.000000D+00
         P2PMB= 0.000000D+00 0.000000D+00 0.000000D+00
       IJP=      64 A= 0.588250D+01 B= 0.136697D+01 U= 0.707494D-02
                    C= 0.483642D+01-0.219919D+01-0.219919D+01 0.100000D+01
         P2P=   0.000000D+00 0.188973D+00 0.000000D+00
         P2PMA= 0.000000D+00 0.000000D+00 0.000000D+00
         P2PMB= 0.000000D+00 0.000000D+00 0.000000D+00
       IJP=      65 A= 0.588250D+01 B= 0.444580D+00 U= 0.180461D-02
                    C= 0.483642D+01-0.219919D+01-0.219919D+01 0.100000D+01
         P2P=   0.000000D+00 0.188973D+00 0.000000D+00
         P2PMA= 0.000000D+00 0.000000D+00 0.000000D+00
         P2PMB= 0.000000D+00 0.000000D+00 0.000000D+00
       IJP=      66 A= 0.136697D+01 B= 0.588250D+01 U= 0.707494D-02
                    C= 0.483642D+01-0.219919D+01-0.219919D+01 0.100000D+01
         P2P=   0.000000D+00 0.188973D+00 0.000000D+00
         P2PMA= 0.000000D+00 0.000000D+00 0.000000D+00
         P2PMB= 0.000000D+00 0.000000D+00 0.000000D+00
       IJP=      67 A= 0.136697D+01 B= 0.136697D+01 U= 0.135073D+00
                    C= 0.483642D+01-0.219919D+01-0.219919D+01 0.100000D+01
         P2P=   0.000000D+00 0.188973D+00 0.000000D+00
         P2PMA= 0.000000D+00 0.000000D+00 0.000000D+00
         P2PMB= 0.000000D+00 0.000000D+00 0.000000D+00
       IJP=      68 A= 0.136697D+01 B= 0.444580D+00 U= 0.903552D-01
                    C= 0.483642D+01-0.219919D+01-0.219919D+01 0.100000D+01
         P2P=   0.000000D+00 0.188973D+00 0.000000D+00
         P2PMA= 0.000000D+00 0.000000D+00 0.000000D+00
         P2PMB= 0.000000D+00 0.000000D+00 0.000000D+00
       IJP=      69 A= 0.444580D+00 B= 0.588250D+01 U= 0.180461D-02
                    C= 0.483642D+01-0.219919D+01-0.219919D+01 0.100000D+01
         P2P=   0.000000D+00 0.188973D+00 0.000000D+00
         P2PMA= 0.000000D+00 0.000000D+00 0.000000D+00
         P2PMB= 0.000000D+00 0.000000D+00 0.000000D+00
       IJP=      70 A= 0.444580D+00 B= 0.136697D+01 U= 0.903552D-01
                    C= 0.483642D+01-0.219919D+01-0.219919D+01 0.100000D+01
         P2P=   0.000000D+00 0.188973D+00 0.000000D+00
         P2PMA= 0.000000D+00 0.000000D+00 0.000000D+00
         P2PMB= 0.000000D+00 0.000000D+00 0.000000D+00
       IJP=      71 A= 0.444580D+00 B= 0.444580D+00 U= 0.172782D+00
                    C= 0.483642D+01-0.219919D+01-0.219919D+01 0.100000D+01
         P2P=   0.000000D+00 0.188973D+00 0.000000D+00
         P2PMA= 0.000000D+00 0.000000D+00 0.000000D+00
         P2PMB= 0.000000D+00 0.000000D+00 0.000000D+00
     IJShl=     9 C2ShlIJ=     4     3 C2CelJ=     1 C2LocIJ=   1   1 C2FPrm=     9 C2KMax= 0.36D+00 0.13D+01
       C2CDif=      1.889726     -0.188973      0.283459
       IJP=      72 A= 0.588250D+01 B= 0.588250D+01 U= 0.912605D-05
                    C=-0.390608D+01-0.135512D+01 0.288247D+01 0.100000D+01
         P2P=   0.944863D+00 0.944863D-01 0.141729D+00
         P2PMA= 0.111163D+02-0.111163D+01 0.166745D+01
         P2PMB=-0.111163D+02 0.111163D+01-0.166745D+01
       IJP=      73 A= 0.588250D+01 B= 0.136697D+01 U= 0.915451D-03
                    C=-0.390608D+01-0.135512D+01 0.288247D+01 0.100000D+01
         P2P=   0.153340D+01 0.356329D-01 0.230010D+00
         P2PMA= 0.111163D+02-0.111163D+01 0.166745D+01
         P2PMB=-0.258319D+01 0.258319D+00-0.387479D+00
       IJP=      74 A= 0.588250D+01 B= 0.444580D+00 U= 0.842253D-03
                    C=-0.390608D+01-0.135512D+01 0.288247D+01 0.100000D+01
         P2P=   0.175694D+01 0.132784D-01 0.263541D+00
         P2PMA= 0.111163D+02-0.111163D+01 0.166745D+01
         P2PMB=-0.840134D+00 0.840134D-01-0.126020D+00
       IJP=      75 A= 0.136697D+01 B= 0.588250D+01 U= 0.915451D-03
                    C=-0.390608D+01-0.135512D+01 0.288247D+01 0.100000D+01
         P2P=   0.356329D+00 0.153340D+00 0.534493D-01
         P2PMA= 0.258319D+01-0.258319D+00 0.387479D+00
         P2PMB=-0.111163D+02 0.111163D+01-0.166745D+01
       IJP=      76 A= 0.136697D+01 B= 0.136697D+01 U= 0.383122D-01
                    C=-0.390608D+01-0.135512D+01 0.288247D+01 0.100000D+01
         P2P=   0.944863D+00 0.944863D-01 0.141729D+00
         P2PMA= 0.258319D+01-0.258319D+00 0.387479D+00
         P2PMB=-0.258319D+01 0.258319D+00-0.387479D+00
       IJP=      77 A= 0.136697D+01 B= 0.444580D+00 U= 0.486807D-01
                    C=-0.390608D+01-0.135512D+01 0.288247D+01 0.100000D+01
         P2P=   0.142596D+01 0.463766D-01 0.213894D+00
         P2PMA= 0.258319D+01-0.258319D+00 0.387479D+00
         P2PMB=-0.840134D+00 0.840134D-01-0.126020D+00
       IJP=      78 A= 0.444580D+00 B= 0.588250D+01 U= 0.842253D-03
                    C=-0.390608D+01-0.135512D+01 0.288247D+01 0.100000D+01
         P2P=   0.132784D+00 0.175694D+00 0.199176D-01
         P2PMA= 0.840134D+00-0.840134D-01 0.126020D+00
         P2PMB=-0.111163D+02 0.111163D+01-0.166745D+01
       IJP=      79 A= 0.444580D+00 B= 0.136697D+01 U= 0.486807D-01
                    C=-0.390608D+01-0.135512D+01 0.288247D+01 0.100000D+01
         P2P=   0.463766D+00 0.142596D+00 0.695650D-01
         P2PMA= 0.840134D+00-0.840134D-01 0.126020D+00
         P2PMB=-0.258319D+01 0.258319D+00-0.387479D+00
       IJP=      80 A= 0.444580D+00 B= 0.444580D+00 U= 0.114689D+00
                    C=-0.390608D+01-0.135512D+01 0.288247D+01 0.100000D+01
         P2P=   0.944863D+00 0.944863D-01 0.141729D+00
         P2PMA= 0.840134D+00-0.840134D-01 0.126020D+00
         P2PMB=-0.840134D+00 0.840134D-01-0.126020D+00
     IJShl=    10 C2ShlIJ=     4     4 C2CelJ=     1 C2LocIJ=   1   1 C2FPrm=     9 C2KMax= 0.13D+01 0.25D+02
       C2CDif=      0.000000      0.000000      0.000000
       IJP=      81 A= 0.588250D+01 B= 0.588250D+01 U= 0.206629D-02
                    C=-0.141748D+02-0.118270D+01 0.119852D+02 0.100000D+01
         P2P=   0.188973D+01 0.000000D+00 0.283459D+00
         P2PMA= 0.000000D+00 0.000000D+00 0.000000D+00
         P2PMB= 0.000000D+00 0.000000D+00 0.000000D+00
       IJP=      82 A= 0.588250D+01 B= 0.136697D+01 U= 0.707494D-02
                    C=-0.141748D+02-0.118270D+01 0.119852D+02 0.100000D+01
         P2P=   0.188973D+01 0.000000D+00 0.283459D+00
         P2PMA= 0.000000D+00 0.000000D+00 0.000000D+00
         P2PMB= 0.000000D+00 0.000000D+00 0.000000D+00
       IJP=      83 A= 0.588250D+01 B= 0.444580D+00 U= 0.180461D-02
                    C=-0.141748D+02-0.118270D+01 0.119852D+02 0.100000D+01
         P2P=   0.188973D+01 0.000000D+00 0.283459D+00
         P2PMA= 0.000000D+00 0.000000D+00 0.000000D+00
         P2PMB= 0.000000D+00 0.000000D+00 0.000000D+00
       IJP=      84 A= 0.136697D+01 B= 0.588250D+01 U= 0.707494D-02
                    C=-0.141748D+02-0.118270D+01 0.119852D+02 0.100000D+01
         P2P=   0.188973D+01 0.000000D+00 0.283459D+00
         P2PMA= 0.000000D+00 0.000000D+00 0.000000D+00
         P2PMB= 0.000000D+00 0.000000D+00 0.000000D+00
       IJP=      85 A= 0.136697D+01 B= 0.136697D+01 U= 0.135073D+00
                    C=-0.141748D+02-0.118270D+01 0.119852D+02 0.100000D+01
         P2P=   0.188973D+01 0.000000D+00 0.283459D+00
         P2PMA= 0.000000D+00 0.000000D+00 0.000000D+00
         P2PMB= 0.000000D+00 0.000000D+00 0.000000D+00
       IJP=      86 A= 0.136697D+01 B= 0.444580D+00 U= 0.903552D-01
                    C=-0.141748D+02-0.118270D+01 0.119852D+02 0.100000D+01
         P2P=   0.188973D+01 0.000000D+00 0.283459D+00
         P2PMA= 0.000000D+00 0.000000D+00 0.000000D+00
         P2PMB= 0.000000D+00 0.000000D+00 0.000000D+00
       IJP=      87 A= 0.444580D+00 B= 0.588250D+01 U= 0.180461D-02
                    C=-0.141748D+02-0.118270D+01 0.119852D+02 0.100000D+01
         P2P=   0.188973D+01 0.000000D+00 0.283459D+00
         P2PMA= 0.000000D+00 0.000000D+00 0.000000D+00
         P2PMB= 0.000000D+00 0.000000D+00 0.000000D+00
       IJP=      88 A= 0.444580D+00 B= 0.136697D+01 U= 0.903552D-01
                    C=-0.141748D+02-0.118270D+01 0.119852D+02 0.100000D+01
         P2P=   0.188973D+01 0.000000D+00 0.283459D+00
         P2PMA= 0.000000D+00 0.000000D+00 0.000000D+00
         P2PMB= 0.000000D+00 0.000000D+00 0.000000D+00
       IJP=      89 A= 0.444580D+00 B= 0.444580D+00 U= 0.172782D+00
                    C=-0.141748D+02-0.118270D+01 0.119852D+02 0.100000D+01
         P2P=   0.188973D+01 0.000000D+00 0.283459D+00
         P2PMA= 0.000000D+00 0.000000D+00 0.000000D+00
         P2PMB= 0.000000D+00 0.000000D+00 0.000000D+00
 IJTC=   4 IType= 3 JType= 4 T2N2St=     9
   IJTN=   9 NPrm=     1     1 C2St=    11 PDSt=    90 PCSt=   207
     IJShl=    11 C2ShlIJ=     5     5 C2CelJ=     1 C2LocIJ=   1   1 C2FPrm=     1 C2KMax= 0.14D+02 0.14D+02
       C2CDif=      0.000000      0.000000      0.000000
       IJP=      90 A= 0.100000D+01 B= 0.000000D+00 U= 0.100000D+01
                    C= 0.100000D+01
         P2P=   0.000000D+00 0.000000D+00 0.000000D+00
         P2PMA= 0.000000D+00 0.000000D+00 0.000000D+00
         P2PMB= 0.000000D+00 0.000000D+00 0.000000D+00
   IJTN=  10 NPrm=     1     1 C2St=    12 PDSt=    91 PCSt=   208
 Overlap and Kinetic Integrals          
 Derivative Range = 0 to 2  Logicals = T F F F F F
 The Identity operator will be used
 PrsmSu:  NPrtUS=   1 ThrOK=F IAlg=1 NPAlg=1 LenDen=           0.
 Prism:   IPart=     0 DynPar=F LinDyn=F Incr=           1.
 PRISM was handed    33551883 working-precision words and    10 shell-pairs
 PRISM will use Minimum- Mop paths
 [0] accuracy = 0.10D-12   Chebyshev Delta = 0.12D-02   Critical T = 28.20   # of points =  11979


           Zone         Bra Derivative Range     Ket Derivative Range
           ==========================================================
             1                 0 to 2                   0 to 0
           ==========================================================

 ===============================================================================
        r     0   1   2   3   4   5   6   7   8   9  10  11  12  13  14  15  16
 ===============================================================================
   1  0 0 0                    
   2  0 0 1   z   z   z   z
   3  0 1 0   y   y   y   y
   4  1 0 0   x   x   x   x
   5  0 0 2   z   z   z
   6  0 1 1   y   y    
   7  0 2 0   y   y   y
   8  1 0 1   z        
   9  1 1 0   x        
  10  2 0 0   x   x   x
  11  0 0 3   z   z
  12  0 1 2   y   y
  13  0 2 1   z    
  14  0 3 0   y   y
  15  1 0 2   x    
  16  1 1 1   x    
  17  1 2 0   x   x
  18  2 0 1   z   z
  19  2 1 0   y    
  20  3 0 0   x   x
  21  0 0 4   z
  22  0 1 3   y
  23  0 2 2   y
  24  0 3 1   z
  25  0 4 0   y
  26  1 0 3   x
  27  1 1 2   x
  28  1 2 1   z
  29  1 3 0   x
  30  2 0 2   z
  31  2 1 1   y
  32  2 2 0   x
  33  3 0 1   z
  34  3 1 0   y
  35  4 0 0   x
 ===============================================================================

                             MD1 Reduction Table
                k    m      Dad    GDad      i    -(ri-1)    n
                1    0       0       0       0       0       1
                2    0      36       0       3       0       2
                3    0      36       0       2       0       3
                4    0      36       0       1       0       4
                5    0      37      36       3      -1       5
                6    0      37       0       2       0       6
                7    0      38      36       2      -1       7
                8    0      39       0       3       0       8
                9    0      38       0       1       0       9
               10    0      39      36       1      -1      10
               11    0      40      37       3      -2      11
               12    0      40       0       2       0      12
               13    0      42       0       3       0      13
               14    0      42      38       2      -2      14
               15    0      40       0       1       0      15
               16    0      41       0       1       0      16
               17    0      42       0       1       0      17
               18    0      43       0       3       0      18
               19    0      43       0       2       0      19
               20    0      43      39       1      -2      20
               21    0      44      40       3      -3      21
               22    0      44       0       2       0      22
               23    0      45      40       2      -1      23
               24    0      46       0       3       0      24
               25    0      46      42       2      -3      25
               26    0      44       0       1       0      26
               27    0      45       0       1       0      27
               28    0      47       0       3       0      28
               29    0      46       0       1       0      29
               30    0      48      43       3      -1      30
               31    0      48       0       2       0      31
               32    0      47      42       1      -1      32
               33    0      49       0       3       0      33
               34    0      49       0       2       0      34
               35    0      49      43       1      -3      35
                1    1       0       0       0       0      36
                2    1      50       0       3       0      37
                3    1      50       0       2       0      38
                4    1      50       0       1       0      39
                5    1      51      50       3      -1      40
                6    1      51       0       2       0      41
                7    1      52      50       2      -1      42
               10    1      53      50       1      -1      43
               11    1      54      51       3      -2      44
               12    1      54       0       2       0      45
               14    1      55      52       2      -2      46
               17    1      55       0       1       0      47
               18    1      56       0       3       0      48
               20    1      56      53       1      -2      49
                1    2       0       0       0       0      50
                2    2      57       0       3       0      51
                3    2      57       0       2       0      52
                4    2      57       0       1       0      53
                5    2      58      57       3      -1      54
                7    2      59      57       2      -1      55
               10    2      60      57       1      -1      56
                1    3       0       0       0       0      57
                2    3      61       0       3       0      58
                3    3      61       0       2       0      59
                4    3      61       0       1       0      60
                1    4       0       0       0       0      61

                           TRn Class Reduction Table
       NA    NB    LA    LB    SA    SB     Off     P1    P2    P3    P4    Rec    NM
        0     0     1     1     0     0       1     13    14     0     0    39     0
        0     0     1     0     0   100      10      0     0     0     0    38     0
        0     0     0     1   100     0      13     15    16     0     0    35     0
        0     0     0     0   100   100      16      0     0     0     0    34     0
        1     0     1     1     0     0      17     17    18     0     0    28     0
        1     0     1     0     0   100      44     19    20     0     0    27     0
        1     0     0     1   100     0      53     21     0     0     0    26     0
        1     0     0     0   100   100      62     22     0     0     0    25     0
        2     0     1     1     0     0      65     23    24     0     0    24     0
        2     0     1     0     0   100     119     25    26     0     0    23     0
        2     0     0     1   100     0     137     27     0     0     0    21     0
        2     0     0     0   100   100     155     28     0     0     0    18     0
        0     0     2     0     0     0     161      0     0     0     0    17     0
        0     0     1     0     0     0     167      0     0     0     0    12     0
        0     0     1     0   100     0     170      0     0     0     0    11     0
        0     0     0     0   100     0     173      0     0     0     0    10     0
        0     0     2     1     1     0     174     29    30     0     0     9     0
        0     0     0     1     0     0     192     14    31     0     0     8     0
        0     0     2     0     1   100     195      0     0     0     0     7     0
        0     0     0     0     0   100     201      0     0     0     0     6     0
        0     0     1     1   101     0     202     32    33     0     0     5     0
        0     0     1     0   101   100     211      0     0     0     0     3     0
        1     0     2     1     1     0     214     34    35     0     0     1     0
        1     0     0     1     0     0     268     35     0     0     0     0     0
        1     0     2     0     1   100     277     36    37     0     0     0     0
        1     0     0     0     0   100     295     37     0     0     0     0     0
        1     0     1     1   101     0     298     38    39     0     0     0     0
        1     0     1     0   101   100     325     40    41     0     0     0     0
        0     0     3     0     1     0     334      0     0     0     0     0     0
        0     0     2     0     1     0     344      0     0     0     0     0     0
        0     0     0     0     0     0     350      0     0     0     0     0     0
        0     0     2     0   101     0     351      0     0     0     0     0     0
        0     0     1     0   101     0     357      0     0     0     0     0     0
        0     0     3     1     2     0     360     42    43     0     0     0     0
        0     0     1     1     1     0     390     30    44     0     0     0     0
        0     0     3     0     2   100     399      0     0     0     0     0     0
        0     0     1     0     1   100     409      0     0     0     0     0     0
        0     0     2     1   102     0     412     45    46     0     0     0     0
        0     0     0     1   101     0     430     33    47     0     0     0     0
        0     0     2     0   102   100     433      0     0     0     0     0     0
        0     0     0     0   101   100     439      0     0     0     0     0     0
        0     0     4     0     2     0     440      0     0     0     0     0     0
        0     0     3     0     2     0     455      0     0     0     0     0     0
        0     0     1     0     1     0     465      0     0     0     0     0     0
        0     0     3     0   102     0     468      0     0     0     0     0     0
        0     0     2     0   102     0     478      0     0     0     0     0     0
        0     0     0     0   101     0     484      0     0     0     0     0     0
 nScale = 11   nIrred =118   Need distance = T
                             Bra-TRn Reduction Table
   mA  mB  kA  kB  a   b   SL  Parents                         i   j   k  RR             mM 
   1   1   2   2   0   0   1 161 167   0   0   0   0   0   0   3   0   0   1   0   0   0   1
   1   1   2   3   0   0   2 162 167   0   0   0   0   0   0   2   0   0   1   0   0   0   1
   1   1   2   4   0   0   3 164 167   0   0   0   0   0   0   1   0   0   1   0   0   0   1
   1   1   3   2   0   0   4 162 168   0   0   0   0   0   0   3   0   0   1   0   0   0   1
   1   1   3   3   0   0   5 163 168   0   0   0   0   0   0   2   0   0   1   0   0   0   1
   1   1   3   4   0   0   6 165 168   0   0   0   0   0   0   1   0   0   1   0   0   0   1
   1   1   4   2   0   0   7 164 169   0   0   0   0   0   0   3   0   0   1   0   0   0   1
   1   1   4   3   0   0   8 165 169   0   0   0   0   0   0   2   0   0   1   0   0   0   1
   1   1   4   4   0   0   9 166 169   0   0   0   0   0   0   1   0   0   1   0   0   0   1
   1   1   2   1   0 100  10   0   0   0   0   0   0   0   0   0   0   0   0   0   0   0   1
   1   1   3   1   0 100  11   0   0   0   0   0   0   0   0   0   0   0   0   0   0   0   1
   1   1   4   1   0 100  12   0   0   0   0   0   0   0   0   0   0   0   0   0   0   0   1
   1   1   1   2 100   0  13 170 173   0   0   0   0   0   0   3   0   0   1   0   0   0   1
   1   1   1   3 100   0  14 171 173   0   0   0   0   0   0   2   0   0   1   0   0   0   1
   1   1   1   4 100   0  15 172 173   0   0   0   0   0   0   1   0   0   1   0   0   0   1
   1   1   1   1 100 100  16   0   0   0   0   0   0   0   0   0   0   0   0   0   0   0   1
   2   1   2   2   0   0  17 174 192   0   0   0   0   0   0  -1   0   0   8   0   0   0   1
   2   1   2   3   0   0  18 175 193   0   0   0   0   0   0  -1   0   0   8   0   0   0   1
   2   1   2   4   0   0  19 176 194   0   0   0   0   0   0  -1   0   0   8   0   0   0   1
   2   1   3   2   0   0  20 177   0   0   0   0   0   0   0   0   0   0   7   0   0   0   1
   2   1   3   3   0   0  21 178   0   0   0   0   0   0   0   0   0   0   7   0   0   0   1
   2   1   3   4   0   0  22 179   0   0   0   0   0   0   0   0   0   0   7   0   0   0   1
   2   1   4   2   0   0  23 183   0   0   0   0   0   0   0   0   0   0   7   0   0   0   1
   2   1   4   3   0   0  24 184   0   0   0   0   0   0   0   0   0   0   7   0   0   0   1
   2   1   4   4   0   0  25 185   0   0   0   0   0   0   0   0   0   0   7   0   0   0   1
   3   1   2   2   0   0  26 177   0   0   0   0   0   0   0   0   0   0   7   0   0   0   1
   3   1   2   3   0   0  27 178   0   0   0   0   0   0   0   0   0   0   7   0   0   0   1
   3   1   2   4   0   0  28 179   0   0   0   0   0   0   0   0   0   0   7   0   0   0   1
   3   1   3   2   0   0  29 180 192   0   0   0   0   0   0  -1   0   0   8   0   0   0   1
   3   1   3   3   0   0  30 181 193   0   0   0   0   0   0  -1   0   0   8   0   0   0   1
   3   1   3   4   0   0  31 182 194   0   0   0   0   0   0  -1   0   0   8   0   0   0   1
   3   1   4   2   0   0  32 186   0   0   0   0   0   0   0   0   0   0   7   0   0   0   1
   3   1   4   3   0   0  33 187   0   0   0   0   0   0   0   0   0   0   7   0   0   0   1
   3   1   4   4   0   0  34 188   0   0   0   0   0   0   0   0   0   0   7   0   0   0   1
   4   1   2   2   0   0  35 183   0   0   0   0   0   0   0   0   0   0   7   0   0   0   1
   4   1   2   3   0   0  36 184   0   0   0   0   0   0   0   0   0   0   7   0   0   0   1
   4   1   2   4   0   0  37 185   0   0   0   0   0   0   0   0   0   0   7   0   0   0   1
   4   1   3   2   0   0  38 186   0   0   0   0   0   0   0   0   0   0   7   0   0   0   1
   4   1   3   3   0   0  39 187   0   0   0   0   0   0   0   0   0   0   7   0   0   0   1
   4   1   3   4   0   0  40 188   0   0   0   0   0   0   0   0   0   0   7   0   0   0   1
   4   1   4   2   0   0  41 189 192   0   0   0   0   0   0  -1   0   0   8   0   0   0   1
   4   1   4   3   0   0  42 190 193   0   0   0   0   0   0  -1   0   0   8   0   0   0   1
   4   1   4   4   0   0  43 191 194   0   0   0   0   0   0  -1   0   0   8   0   0   0   1
   2   1   2   1   0 100  44 195 201   0   0   0   0   0   0  -1   0   0   8   0   0   0   1
   2   1   3   1   0 100  45 196   0   0   0   0   0   0   0   0   0   0   7   0   0   0   1
   2   1   4   1   0 100  46 198   0   0   0   0   0   0   0   0   0   0   7   0   0   0   1
   3   1   2   1   0 100  47 196   0   0   0   0   0   0   0   0   0   0   7   0   0   0   1
   3   1   3   1   0 100  48 197 201   0   0   0   0   0   0  -1   0   0   8   0   0   0   1
   3   1   4   1   0 100  49 199   0   0   0   0   0   0   0   0   0   0   7   0   0   0   1
   4   1   2   1   0 100  50 198   0   0   0   0   0   0   0   0   0   0   7   0   0   0   1
   4   1   3   1   0 100  51 199   0   0   0   0   0   0   0   0   0   0   7   0   0   0   1
   4   1   4   1   0 100  52 200 201   0   0   0   0   0   0  -1   0   0   8   0   0   0   1
   2   1   1   2 100   0  53 202   0   0   0   0   0   0   0   0   0   0   7   0   0   0   1
   2   1   1   3 100   0  54 203   0   0   0   0   0   0   0   0   0   0   7   0   0   0   1
   2   1   1   4 100   0  55 204   0   0   0   0   0   0   0   0   0   0   7   0   0   0   1
   3   1   1   2 100   0  56 205   0   0   0   0   0   0   0   0   0   0   7   0   0   0   1
   3   1   1   3 100   0  57 206   0   0   0   0   0   0   0   0   0   0   7   0   0   0   1
   3   1   1   4 100   0  58 207   0   0   0   0   0   0   0   0   0   0   7   0   0   0   1
   4   1   1   2 100   0  59 208   0   0   0   0   0   0   0   0   0   0   7   0   0   0   1
   4   1   1   3 100   0  60 209   0   0   0   0   0   0   0   0   0   0   7   0   0   0   1
   4   1   1   4 100   0  61 210   0   0   0   0   0   0   0   0   0   0   7   0   0   0   1
   2   1   1   1 100 100  62 211   0   0   0   0   0   0   0   0   0   0   7   0   0   0   1
   3   1   1   1 100 100  63 212   0   0   0   0   0   0   0   0   0   0   7   0   0   0   1
   4   1   1   1 100 100  64 213   0   0   0   0   0   0   0   0   0   0   7   0   0   0   1
   5   1   2   2   0   0  65 214 268   0   0   0   0   0   0  -1   0   0   8   0   0   0   1
   5   1   2   3   0   0  66 215 269   0   0   0   0   0   0  -1   0   0   8   0   0   0   1
   5   1   2   4   0   0  67 216 270   0   0   0   0   0   0  -1   0   0   8   0   0   0   1
   5   1   3   2   0   0  68 217   0   0   0   0   0   0   0   0   0   0   7   0   0   0   1
   5   1   3   3   0   0  69 218   0   0   0   0   0   0   0   0   0   0   7   0   0   0   1
   5   1   3   4   0   0  70 219   0   0   0   0   0   0   0   0   0   0   7   0   0   0   1
   5   1   4   2   0   0  71 223   0   0   0   0   0   0   0   0   0   0   7   0   0   0   1
   5   1   4   3   0   0  72 224   0   0   0   0   0   0   0   0   0   0   7   0   0   0   1
   5   1   4   4   0   0  73 225   0   0   0   0   0   0   0   0   0   0   7   0   0   0   1
   6   1   2   2   0   0  74 217   0   0   0   0   0   0   0   0   0   0   7   0   0   0   1
   6   1   2   3   0   0  75 218   0   0   0   0   0   0   0   0   0   0   7   0   0   0   1
   6   1   2   4   0   0  76 219   0   0   0   0   0   0   0   0   0   0   7   0   0   0   1
   6   1   3   2   0   0  77 220 268   0   0   0   0   0   0  -1   0   0   8   0   0   0   1
   6   1   3   3   0   0  78 221 269   0   0   0   0   0   0  -1   0   0   8   0   0   0   1
   6   1   3   4   0   0  79 222 270   0   0   0   0   0   0  -1   0   0   8   0   0   0   1
   6   1   4   2   0   0  80 226   0   0   0   0   0   0   0   0   0   0   7   0   0   0   1
   6   1   4   3   0   0  81 227   0   0   0   0   0   0   0   0   0   0   7   0   0   0   1
   6   1   4   4   0   0  82 228   0   0   0   0   0   0   0   0   0   0   7   0   0   0   1
   7   1   2   2   0   0  83 235   0   0   0   0   0   0   0   0   0   0   7   0   0   0   1
   7   1   2   3   0   0  84 236   0   0   0   0   0   0   0   0   0   0   7   0   0   0   1
   7   1   2   4   0   0  85 237   0   0   0   0   0   0   0   0   0   0   7   0   0   0   1
   7   1   3   2   0   0  86 238 271   0   0   0   0   0   0  -1   0   0   8   0   0   0   1
   7   1   3   3   0   0  87 239 272   0   0   0   0   0   0  -1   0   0   8   0   0   0   1
   7   1   3   4   0   0  88 240 273   0   0   0   0   0   0  -1   0   0   8   0   0   0   1
   7   1   4   2   0   0  89 244   0   0   0   0   0   0   0   0   0   0   7   0   0   0   1
   7   1   4   3   0   0  90 245   0   0   0   0   0   0   0   0   0   0   7   0   0   0   1
   7   1   4   4   0   0  91 246   0   0   0   0   0   0   0   0   0   0   7   0   0   0   1
   8   1   2   2   0   0  92 250 274   0   0   0   0   0   0  -1   0   0   8   0   0   0   1
   8   1   2   3   0   0  93 251 275   0   0   0   0   0   0  -1   0   0   8   0   0   0   1
   8   1   2   4   0   0  94 252 276   0   0   0   0   0   0  -1   0   0   8   0   0   0   1
   8   1   3   2   0   0  95 253   0   0   0   0   0   0   0   0   0   0   7   0   0   0   1
   8   1   3   3   0   0  96 254   0   0   0   0   0   0   0   0   0   0   7   0   0   0   1
   8   1   3   4   0   0  97 255   0   0   0   0   0   0   0   0   0   0   7   0   0   0   1
   8   1   4   2   0   0  98 259   0   0   0   0   0   0   0   0   0   0   7   0   0   0   1
   8   1   4   3   0   0  99 260   0   0   0   0   0   0   0   0   0   0   7   0   0   0   1
   8   1   4   4   0   0 100 261   0   0   0   0   0   0   0   0   0   0   7   0   0   0   1
   9   1   2   2   0   0 101 241   0   0   0   0   0   0   0   0   0   0   7   0   0   0   1
   9   1   2   3   0   0 102 242   0   0   0   0   0   0   0   0   0   0   7   0   0   0   1
   9   1   2   4   0   0 103 243   0   0   0   0   0   0   0   0   0   0   7   0   0   0   1
   9   1   3   2   0   0 104 244   0   0   0   0   0   0   0   0   0   0   7   0   0   0   1
   9   1   3   3   0   0 105 245   0   0   0   0   0   0   0   0   0   0   7   0   0   0   1
   9   1   3   4   0   0 106 246   0   0   0   0   0   0   0   0   0   0   7   0   0   0   1
   9   1   4   2   0   0 107 247 271   0   0   0   0   0   0  -1   0   0   8   0   0   0   1
   9   1   4   3   0   0 108 248 272   0   0   0   0   0   0  -1   0   0   8   0   0   0   1
   9   1   4   4   0   0 109 249 273   0   0   0   0   0   0  -1   0   0   8   0   0   0   1
  10   1   2   2   0   0 110 259   0   0   0   0   0   0   0   0   0   0   7   0   0   0   1
  10   1   2   3   0   0 111 260   0   0   0   0   0   0   0   0   0   0   7   0   0   0   1
  10   1   2   4   0   0 112 261   0   0   0   0   0   0   0   0   0   0   7   0   0   0   1
  10   1   3   2   0   0 113 262   0   0   0   0   0   0   0   0   0   0   7   0   0   0   1
  10   1   3   3   0   0 114 263   0   0   0   0   0   0   0   0   0   0   7   0   0   0   1
  10   1   3   4   0   0 115 264   0   0   0   0   0   0   0   0   0   0   7   0   0   0   1
  10   1   4   2   0   0 116 265 274   0   0   0   0   0   0  -1   0   0   8   0   0   0   1
  10   1   4   3   0   0 117 266 275   0   0   0   0   0   0  -1   0   0   8   0   0   0   1
  10   1   4   4   0   0 118 267 276   0   0   0   0   0   0  -1   0   0   8   0   0   0   1
   5   1   2   1   0 100 119 277 295   0   0   0   0   0   0  -1   0   0   8   0   0   0   1
   5   1   3   1   0 100 120 278   0   0   0   0   0   0   0   0   0   0   7   0   0   0   1
   5   1   4   1   0 100 121 280   0   0   0   0   0   0   0   0   0   0   7   0   0   0   1
   6   1   2   1   0 100 122 278   0   0   0   0   0   0   0   0   0   0   7   0   0   0   1
   6   1   3   1   0 100 123 279 295   0   0   0   0   0   0  -1   0   0   8   0   0   0   1
   6   1   4   1   0 100 124 281   0   0   0   0   0   0   0   0   0   0   7   0   0   0   1
   7   1   2   1   0 100 125 284   0   0   0   0   0   0   0   0   0   0   7   0   0   0   1
   7   1   3   1   0 100 126 285 296   0   0   0   0   0   0  -1   0   0   8   0   0   0   1
   7   1   4   1   0 100 127 287   0   0   0   0   0   0   0   0   0   0   7   0   0   0   1
   8   1   2   1   0 100 128 289 297   0   0   0   0   0   0  -1   0   0   8   0   0   0   1
   8   1   3   1   0 100 129 290   0   0   0   0   0   0   0   0   0   0   7   0   0   0   1
   8   1   4   1   0 100 130 292   0   0   0   0   0   0   0   0   0   0   7   0   0   0   1
   9   1   2   1   0 100 131 286   0   0   0   0   0   0   0   0   0   0   7   0   0   0   1
   9   1   3   1   0 100 132 287   0   0   0   0   0   0   0   0   0   0   7   0   0   0   1
   9   1   4   1   0 100 133 288 296   0   0   0   0   0   0  -1   0   0   8   0   0   0   1
  10   1   2   1   0 100 134 292   0   0   0   0   0   0   0   0   0   0   7   0   0   0   1
  10   1   3   1   0 100 135 293   0   0   0   0   0   0   0   0   0   0   7   0   0   0   1
  10   1   4   1   0 100 136 294 297   0   0   0   0   0   0  -1   0   0   8   0   0   0   1
   5   1   1   2 100   0 137 298   0   0   0   0   0   0   0   0   0   0   7   0   0   0   1
   5   1   1   3 100   0 138 299   0   0   0   0   0   0   0   0   0   0   7   0   0   0   1
   5   1   1   4 100   0 139 300   0   0   0   0   0   0   0   0   0   0   7   0   0   0   1
   6   1   1   2 100   0 140 301   0   0   0   0   0   0   0   0   0   0   7   0   0   0   1
   6   1   1   3 100   0 141 302   0   0   0   0   0   0   0   0   0   0   7   0   0   0   1
   6   1   1   4 100   0 142 303   0   0   0   0   0   0   0   0   0   0   7   0   0   0   1
   7   1   1   2 100   0 143 310   0   0   0   0   0   0   0   0   0   0   7   0   0   0   1
   7   1   1   3 100   0 144 311   0   0   0   0   0   0   0   0   0   0   7   0   0   0   1
   7   1   1   4 100   0 145 312   0   0   0   0   0   0   0   0   0   0   7   0   0   0   1
   8   1   1   2 100   0 146 316   0   0   0   0   0   0   0   0   0   0   7   0   0   0   1
   8   1   1   3 100   0 147 317   0   0   0   0   0   0   0   0   0   0   7   0   0   0   1
   8   1   1   4 100   0 148 318   0   0   0   0   0   0   0   0   0   0   7   0   0   0   1
   9   1   1   2 100   0 149 313   0   0   0   0   0   0   0   0   0   0   7   0   0   0   1
   9   1   1   3 100   0 150 314   0   0   0   0   0   0   0   0   0   0   7   0   0   0   1
   9   1   1   4 100   0 151 315   0   0   0   0   0   0   0   0   0   0   7   0   0   0   1
  10   1   1   2 100   0 152 322   0   0   0   0   0   0   0   0   0   0   7   0   0   0   1
  10   1   1   3 100   0 153 323   0   0   0   0   0   0   0   0   0   0   7   0   0   0   1
  10   1   1   4 100   0 154 324   0   0   0   0   0   0   0   0   0   0   7   0   0   0   1
   5   1   1   1 100 100 155 325   0   0   0   0   0   0   0   0   0   0   7   0   0   0   1
   6   1   1   1 100 100 156 326   0   0   0   0   0   0   0   0   0   0   7   0   0   0   1
   7   1   1   1 100 100 157 329   0   0   0   0   0   0   0   0   0   0   7   0   0   0   1
   8   1   1   1 100 100 158 331   0   0   0   0   0   0   0   0   0   0   7   0   0   0   1
   9   1   1   1 100 100 159 330   0   0   0   0   0   0   0   0   0   0   7   0   0   0   1
  10   1   1   1 100 100 160 333   0   0   0   0   0   0   0   0   0   0   7   0   0   0   1
   1   1   5   1   0   0 161   0   0   0   0   0   0   0   0   0   0   0   0   0   0   0   1
   1   1   6   1   0   0 162   0   0   0   0   0   0   0   0   0   0   0   0   0   0   0   1
   1   1   7   1   0   0 163   0   0   0   0   0   0   0   0   0   0   0   0   0   0   0   1
   1   1   8   1   0   0 164   0   0   0   0   0   0   0   0   0   0   0   0   0   0   0   1
   1   1   9   1   0   0 165   0   0   0   0   0   0   0   0   0   0   0   0   0   0   0   1
   1   1  10   1   0   0 166   0   0   0   0   0   0   0   0   0   0   0   0   0   0   0   1
   1   1   2   1   0   0 167   0   0   0   0   0   0   0   0   0   0   0   0   0   0   0   1
   1   1   3   1   0   0 168   0   0   0   0   0   0   0   0   0   0   0   0   0   0   0   1
   1   1   4   1   0   0 169   0   0   0   0   0   0   0   0   0   0   0   0   0   0   0   1
   1   1   2   1 100   0 170   0   0   0   0   0   0   0   0   0   0   0   0   0   0   0   1
   1   1   3   1 100   0 171   0   0   0   0   0   0   0   0   0   0   0   0   0   0   0   1
   1   1   4   1 100   0 172   0   0   0   0   0   0   0   0   0   0   0   0   0   0   0   1
   1   1   1   1 100   0 173   0   0   0   0   0   0   0   0   0   0   0   0   0   0   0   1
   1   1   5   2   1   0 174 334 344   0   0   0   0   0   0   3   0   0   1   0   0   0   1
   1   1   5   3   1   0 175 335 344   0   0   0   0   0   0   2   0   0   1   0   0   0   1
   1   1   5   4   1   0 176 338 344   0   0   0   0   0   0   1   0   0   1   0   0   0   1
   1   1   6   2   1   0 177 335 345   0   0   0   0   0   0   3   0   0   1   0   0   0   1
   1   1   6   3   1   0 178 336 345   0   0   0   0   0   0   2   0   0   1   0   0   0   1
   1   1   6   4   1   0 179 339 345   0   0   0   0   0   0   1   0   0   1   0   0   0   1
   1   1   7   2   1   0 180 336 346   0   0   0   0   0   0   3   0   0   1   0   0   0   1
   1   1   7   3   1   0 181 337 346   0   0   0   0   0   0   2   0   0   1   0   0   0   1
   1   1   7   4   1   0 182 340 346   0   0   0   0   0   0   1   0   0   1   0   0   0   1
   1   1   8   2   1   0 183 338 347   0   0   0   0   0   0   3   0   0   1   0   0   0   1
   1   1   8   3   1   0 184 339 347   0   0   0   0   0   0   2   0   0   1   0   0   0   1
   1   1   8   4   1   0 185 341 347   0   0   0   0   0   0   1   0   0   1   0   0   0   1
   1   1   9   2   1   0 186 339 348   0   0   0   0   0   0   3   0   0   1   0   0   0   1
   1   1   9   3   1   0 187 340 348   0   0   0   0   0   0   2   0   0   1   0   0   0   1
   1   1   9   4   1   0 188 342 348   0   0   0   0   0   0   1   0   0   1   0   0   0   1
   1   1  10   2   1   0 189 341 349   0   0   0   0   0   0   3   0   0   1   0   0   0   1
   1   1  10   3   1   0 190 342 349   0   0   0   0   0   0   2   0   0   1   0   0   0   1
   1   1  10   4   1   0 191 343 349   0   0   0   0   0   0   1   0   0   1   0   0   0   1
   1   1   1   2   0   0 192 167 350   0   0   0   0   0   0   3   0   0   1   0   0   0   1
   1   1   1   3   0   0 193 168 350   0   0   0   0   0   0   2   0   0   1   0   0   0   1
   1   1   1   4   0   0 194 169 350   0   0   0   0   0   0   1   0   0   1   0   0   0   1
   1   1   5   1   1 100 195   0   0   0   0   0   0   0   0   0   0   0   0   0   0   0   1
   1   1   6   1   1 100 196   0   0   0   0   0   0   0   0   0   0   0   0   0   0   0   1
   1   1   7   1   1 100 197   0   0   0   0   0   0   0   0   0   0   0   0   0   0   0   1
   1   1   8   1   1 100 198   0   0   0   0   0   0   0   0   0   0   0   0   0   0   0   1
   1   1   9   1   1 100 199   0   0   0   0   0   0   0   0   0   0   0   0   0   0   0   1
   1   1  10   1   1 100 200   0   0   0   0   0   0   0   0   0   0   0   0   0   0   0   1
   1   1   1   1   0 100 201   0   0   0   0   0   0   0   0   0   0   0   0   0   0   0   1
   1   1   2   2 101   0 202 351 357   0   0   0   0   0   0   3   0   0   1   0   0   0   1
   1   1   2   3 101   0 203 352 357   0   0   0   0   0   0   2   0   0   1   0   0   0   1
   1   1   2   4 101   0 204 354 357   0   0   0   0   0   0   1   0   0   1   0   0   0   1
   1   1   3   2 101   0 205 352 358   0   0   0   0   0   0   3   0   0   1   0   0   0   1
   1   1   3   3 101   0 206 353 358   0   0   0   0   0   0   2   0   0   1   0   0   0   1
   1   1   3   4 101   0 207 355 358   0   0   0   0   0   0   1   0   0   1   0   0   0   1
   1   1   4   2 101   0 208 354 359   0   0   0   0   0   0   3   0   0   1   0   0   0   1
   1   1   4   3 101   0 209 355 359   0   0   0   0   0   0   2   0   0   1   0   0   0   1
   1   1   4   4 101   0 210 356 359   0   0   0   0   0   0   1   0   0   1   0   0   0   1
   1   1   2   1 101 100 211   0   0   0   0   0   0   0   0   0   0   0   0   0   0   0   1
   1   1   3   1 101 100 212   0   0   0   0   0   0   0   0   0   0   0   0   0   0   0   1
   1   1   4   1 101 100 213   0   0   0   0   0   0   0   0   0   0   0   0   0   0   0   1
   2   1   5   2   1   0 214 360 390   0   0   0   0   0   0  -2   0   0   8   0   0   0   1
   2   1   5   3   1   0 215 361 391   0   0   0   0   0   0  -2   0   0   8   0   0   0   1
   2   1   5   4   1   0 216 362 392   0   0   0   0   0   0  -2   0   0   8   0   0   0   1
   2   1   6   2   1   0 217 363 393   0   0   0   0   0   0  -1   0   0   8   0   0   0   1
   2   1   6   3   1   0 218 364 394   0   0   0   0   0   0  -1   0   0   8   0   0   0   1
   2   1   6   4   1   0 219 365 395   0   0   0   0   0   0  -1   0   0   8   0   0   0   1
   2   1   7   2   1   0 220 366   0   0   0   0   0   0   0   0   0   0   7   0   0   0   1
   2   1   7   3   1   0 221 367   0   0   0   0   0   0   0   0   0   0   7   0   0   0   1
   2   1   7   4   1   0 222 368   0   0   0   0   0   0   0   0   0   0   7   0   0   0   1
   2   1   8   2   1   0 223 372 396   0   0   0   0   0   0  -1   0   0   8   0   0   0   1
   2   1   8   3   1   0 224 373 397   0   0   0   0   0   0  -1   0   0   8   0   0   0   1
   2   1   8   4   1   0 225 374 398   0   0   0   0   0   0  -1   0   0   8   0   0   0   1
   2   1   9   2   1   0 226 375   0   0   0   0   0   0   0   0   0   0   7   0   0   0   1
   2   1   9   3   1   0 227 376   0   0   0   0   0   0   0   0   0   0   7   0   0   0   1
   2   1   9   4   1   0 228 377   0   0   0   0   0   0   0   0   0   0   7   0   0   0   1
   2   1  10   2   1   0 229 381   0   0   0   0   0   0   0   0   0   0   7   0   0   0   1
   2   1  10   3   1   0 230 382   0   0   0   0   0   0   0   0   0   0   7   0   0   0   1
   2   1  10   4   1   0 231 383   0   0   0   0   0   0   0   0   0   0   7   0   0   0   1
   3   1   5   2   1   0 232 363   0   0   0   0   0   0   0   0   0   0   7   0   0   0   1
   3   1   5   3   1   0 233 364   0   0   0   0   0   0   0   0   0   0   7   0   0   0   1
   3   1   5   4   1   0 234 365   0   0   0   0   0   0   0   0   0   0   7   0   0   0   1
   3   1   6   2   1   0 235 366 390   0   0   0   0   0   0  -1   0   0   8   0   0   0   1
   3   1   6   3   1   0 236 367 391   0   0   0   0   0   0  -1   0   0   8   0   0   0   1
   3   1   6   4   1   0 237 368 392   0   0   0   0   0   0  -1   0   0   8   0   0   0   1
   3   1   7   2   1   0 238 369 393   0   0   0   0   0   0  -2   0   0   8   0   0   0   1
   3   1   7   3   1   0 239 370 394   0   0   0   0   0   0  -2   0   0   8   0   0   0   1
   3   1   7   4   1   0 240 371 395   0   0   0   0   0   0  -2   0   0   8   0   0   0   1
   3   1   8   2   1   0 241 375   0   0   0   0   0   0   0   0   0   0   7   0   0   0   1
   3   1   8   3   1   0 242 376   0   0   0   0   0   0   0   0   0   0   7   0   0   0   1
   3   1   8   4   1   0 243 377   0   0   0   0   0   0   0   0   0   0   7   0   0   0   1
   3   1   9   2   1   0 244 378 396   0   0   0   0   0   0  -1   0   0   8   0   0   0   1
   3   1   9   3   1   0 245 379 397   0   0   0   0   0   0  -1   0   0   8   0   0   0   1
   3   1   9   4   1   0 246 380 398   0   0   0   0   0   0  -1   0   0   8   0   0   0   1
   3   1  10   2   1   0 247 384   0   0   0   0   0   0   0   0   0   0   7   0   0   0   1
   3   1  10   3   1   0 248 385   0   0   0   0   0   0   0   0   0   0   7   0   0   0   1
   3   1  10   4   1   0 249 386   0   0   0   0   0   0   0   0   0   0   7   0   0   0   1
   4   1   5   2   1   0 250 372   0   0   0   0   0   0   0   0   0   0   7   0   0   0   1
   4   1   5   3   1   0 251 373   0   0   0   0   0   0   0   0   0   0   7   0   0   0   1
   4   1   5   4   1   0 252 374   0   0   0   0   0   0   0   0   0   0   7   0   0   0   1
   4   1   6   2   1   0 253 375   0   0   0   0   0   0   0   0   0   0   7   0   0   0   1
   4   1   6   3   1   0 254 376   0   0   0   0   0   0   0   0   0   0   7   0   0   0   1
   4   1   6   4   1   0 255 377   0   0   0   0   0   0   0   0   0   0   7   0   0   0   1
   4   1   7   2   1   0 256 378   0   0   0   0   0   0   0   0   0   0   7   0   0   0   1
   4   1   7   3   1   0 257 379   0   0   0   0   0   0   0   0   0   0   7   0   0   0   1
   4   1   7   4   1   0 258 380   0   0   0   0   0   0   0   0   0   0   7   0   0   0   1
   4   1   8   2   1   0 259 381 390   0   0   0   0   0   0  -1   0   0   8   0   0   0   1
   4   1   8   3   1   0 260 382 391   0   0   0   0   0   0  -1   0   0   8   0   0   0   1
   4   1   8   4   1   0 261 383 392   0   0   0   0   0   0  -1   0   0   8   0   0   0   1
   4   1   9   2   1   0 262 384 393   0   0   0   0   0   0  -1   0   0   8   0   0   0   1
   4   1   9   3   1   0 263 385 394   0   0   0   0   0   0  -1   0   0   8   0   0   0   1
   4   1   9   4   1   0 264 386 395   0   0   0   0   0   0  -1   0   0   8   0   0   0   1
   4   1  10   2   1   0 265 387 396   0   0   0   0   0   0  -2   0   0   8   0   0   0   1
   4   1  10   3   1   0 266 388 397   0   0   0   0   0   0  -2   0   0   8   0   0   0   1
   4   1  10   4   1   0 267 389 398   0   0   0   0   0   0  -2   0   0   8   0   0   0   1
   2   1   1   2   0   0 268 390   0   0   0   0   0   0   0   0   0   0   7   0   0   0   1
   2   1   1   3   0   0 269 391   0   0   0   0   0   0   0   0   0   0   7   0   0   0   1
   2   1   1   4   0   0 270 392   0   0   0   0   0   0   0   0   0   0   7   0   0   0   1
   3   1   1   2   0   0 271 393   0   0   0   0   0   0   0   0   0   0   7   0   0   0   1
   3   1   1   3   0   0 272 394   0   0   0   0   0   0   0   0   0   0   7   0   0   0   1
   3   1   1   4   0   0 273 395   0   0   0   0   0   0   0   0   0   0   7   0   0   0   1
   4   1   1   2   0   0 274 396   0   0   0   0   0   0   0   0   0   0   7   0   0   0   1
   4   1   1   3   0   0 275 397   0   0   0   0   0   0   0   0   0   0   7   0   0   0   1
   4   1   1   4   0   0 276 398   0   0   0   0   0   0   0   0   0   0   7   0   0   0   1
   2   1   5   1   1 100 277 399 409   0   0   0   0   0   0  -2   0   0   8   0   0   0   1
   2   1   6   1   1 100 278 400 410   0   0   0   0   0   0  -1   0   0   8   0   0   0   1
   2   1   7   1   1 100 279 401   0   0   0   0   0   0   0   0   0   0   7   0   0   0   1
   2   1   8   1   1 100 280 403 411   0   0   0   0   0   0  -1   0   0   8   0   0   0   1
   2   1   9   1   1 100 281 404   0   0   0   0   0   0   0   0   0   0   7   0   0   0   1
   2   1  10   1   1 100 282 406   0   0   0   0   0   0   0   0   0   0   7   0   0   0   1
   3   1   5   1   1 100 283 400   0   0   0   0   0   0   0   0   0   0   7   0   0   0   1
   3   1   6   1   1 100 284 401 409   0   0   0   0   0   0  -1   0   0   8   0   0   0   1
   3   1   7   1   1 100 285 402 410   0   0   0   0   0   0  -2   0   0   8   0   0   0   1
   3   1   8   1   1 100 286 404   0   0   0   0   0   0   0   0   0   0   7   0   0   0   1
   3   1   9   1   1 100 287 405 411   0   0   0   0   0   0  -1   0   0   8   0   0   0   1
   3   1  10   1   1 100 288 407   0   0   0   0   0   0   0   0   0   0   7   0   0   0   1
   4   1   5   1   1 100 289 403   0   0   0   0   0   0   0   0   0   0   7   0   0   0   1
   4   1   6   1   1 100 290 404   0   0   0   0   0   0   0   0   0   0   7   0   0   0   1
   4   1   7   1   1 100 291 405   0   0   0   0   0   0   0   0   0   0   7   0   0   0   1
   4   1   8   1   1 100 292 406 409   0   0   0   0   0   0  -1   0   0   8   0   0   0   1
   4   1   9   1   1 100 293 407 410   0   0   0   0   0   0  -1   0   0   8   0   0   0   1
   4   1  10   1   1 100 294 408 411   0   0   0   0   0   0  -2   0   0   8   0   0   0   1
   2   1   1   1   0 100 295 409   0   0   0   0   0   0   0   0   0   0   7   0   0   0   1
   3   1   1   1   0 100 296 410   0   0   0   0   0   0   0   0   0   0   7   0   0   0   1
   4   1   1   1   0 100 297 411   0   0   0   0   0   0   0   0   0   0   7   0   0   0   1
   2   1   2   2 101   0 298 412 430   0   0   0   0   0   0  -1   0   0   8   0   0   0   1
   2   1   2   3 101   0 299 413 431   0   0   0   0   0   0  -1   0   0   8   0   0   0   1
   2   1   2   4 101   0 300 414 432   0   0   0   0   0   0  -1   0   0   8   0   0   0   1
[...]
      4   0.000000D+00 -0.245991D+02 -0.246099D+02 -0.246232D+02 -0.246233D+02
      5   0.100000D+01 -0.246235D+02 -0.246350D+02 -0.246495D+02 -0.246498D+02
      6   0.000000D+00 -0.246238D+02 -0.246354D+02 -0.246499D+02 -0.246503D+02
      7   0.000000D+00 -0.246238D+02 -0.246353D+02 -0.246498D+02 -0.246502D+02
      8   0.000000D+00 -0.246238D+02 -0.246353D+02 -0.246498D+02 -0.246502D+02
                 6             7             8 
      1   0.000000D+00  0.000000D+00  0.000000D+00
      2  -0.244251D+02 -0.244251D+02 -0.244251D+02
      3  -0.244969D+02 -0.244969D+02 -0.244969D+02
      4  -0.246233D+02 -0.246233D+02 -0.246233D+02
      5  -0.246498D+02 -0.246498D+02 -0.246498D+02
      6  -0.246503D+02 -0.246503D+02 -0.246503D+02
      7  -0.246502D+02 -0.246502D+02 -0.246502D+02
      8  -0.246502D+02 -0.246502D+02 -0.246502D+02
 BE matrix at iteration          7
                 1             2             3             4             5 
      1   0.000000D+00 -0.100000D+01 -0.100000D+01 -0.100000D+01 -0.100000D+01
      2  -0.100000D+01  0.000000D+00 -0.194041D-02 -0.144362D-01 -0.184613D-01
      3  -0.100000D+01 -0.194041D-02  0.000000D+00 -0.580631D-02 -0.846855D-02
      4  -0.100000D+01 -0.144362D-01 -0.580631D-02  0.000000D+00 -0.258056D-03
      5  -0.100000D+01 -0.184613D-01 -0.846855D-02 -0.258056D-03  0.000000D+00
      6  -0.100000D+01 -0.185509D-01 -0.853013D-02 -0.269403D-03 -0.136787D-06
      7  -0.100000D+01 -0.185449D-01 -0.852607D-02 -0.268685D-03 -0.123449D-06
      8  -0.100000D+01 -0.185457D-01 -0.852661D-02 -0.268783D-03 -0.125391D-06
                 6             7             8 
      1  -0.100000D+01 -0.100000D+01 -0.100000D+01
      2  -0.185509D-01 -0.185449D-01 -0.185457D-01
      3  -0.853013D-02 -0.852607D-02 -0.852661D-02
      4  -0.269403D-03 -0.268685D-03 -0.268783D-03
      5  -0.136787D-06 -0.123449D-06 -0.125391D-06
      6   0.000000D+00 -0.519776D-09 -0.397009D-09
      7  -0.519776D-09  0.000000D+00 -0.889955D-11
      8  -0.397009D-09 -0.889955D-11  0.000000D+00
 NSaved= 7 IEnMin= 7 EnMin= -74.2765541765320     IErMin= 7 ErrMin= 1.41D-09
 ErrMax= 1.41D-09  0.00D+00 EMaxC= 1.00D-01 BMatC= 1.90D-17 BMatP= 8.28D-12
 IDIUse=1 WtCom= 1.00D+00 WtEn= 0.00D+00
 Inv2:  IOpt= 1 Iter= 1 AM= 7.67D+05 Conv= 1.00D-12.
 Inv2:  IOpt= 1 Iter= 2 AM= 2.65D-04 Conv= 1.00D-12.
 Inv2:  IOpt= 1 Iter= 3 AM= 3.09D-13 Conv= 1.00D-12.
 Coeff-Com: -0.134D-06 0.259D-06-0.146D-05 0.441D-05 0.939D-04 0.461D-02
 Coeff-Com:  0.995D+00
 Coeff-En:   0.000D+00 0.000D+00 0.000D+00 0.000D+00 0.000D+00 0.000D+00
 Coeff-En:   0.000D+00
 Coeff:     -0.134D-06 0.259D-06-0.146D-05 0.441D-05 0.939D-04 0.461D-02
 Coeff:      0.995D+00
 NewF-IndFok=    0        1        2        3        4        5        6
 NewF-Coef=  -1.34D-07 2.59D-07-1.46D-06 4.41D-06 9.39D-05 4.61D-03 9.95D-01
 Extrapolated FA at iteration for IMat=    7:
                1             2             3             4             5 
      1 -0.111031D+02
      2 -0.298589D+01 -0.167921D+01
      3 -0.281512D-01 -0.477156D+00 -0.615679D+00
      4  0.281512D-02  0.477156D-01  0.412887D-01 -0.206921D+00
      5 -0.422268D-02 -0.715735D-01 -0.619331D-01  0.619331D-02 -0.212082D+00
      6 -0.767571D-02 -0.109810D+01 -0.179520D+01  0.179520D+00 -0.269279D+00
      7 -0.109810D+01 -0.122908D+01 -0.103044D+01  0.103044D+00 -0.154566D+00
      8  0.179520D+01  0.103044D+01  0.162177D+00 -0.630458D-01  0.945688D-01
      9 -0.179520D+00 -0.103044D+00 -0.630458D-01 -0.461977D+00 -0.945688D-02
     10  0.269279D+00  0.154566D+00  0.945688D-01 -0.945688D-02 -0.454096D+00
                6             7             8             9            10 
      6 -0.111031D+02
      7 -0.298589D+01 -0.167921D+01
      8  0.281512D-01  0.477156D+00 -0.615679D+00
      9 -0.281512D-02 -0.477156D-01  0.412887D-01 -0.206921D+00
     10  0.422268D-02  0.715735D-01 -0.619331D-01  0.619331D-02 -0.212082D+00
 AO F in SymVFV:
                1             2             3             4             5 
      1 -0.111031D+02
      2 -0.298589D+01 -0.167921D+01
      3 -0.281512D-01 -0.477156D+00 -0.615679D+00
      4  0.281512D-02  0.477156D-01  0.412887D-01 -0.206921D+00
      5 -0.422268D-02 -0.715735D-01 -0.619331D-01  0.619331D-02 -0.212082D+00
      6 -0.767571D-02 -0.109810D+01 -0.179520D+01  0.179520D+00 -0.269279D+00
      7 -0.109810D+01 -0.122908D+01 -0.103044D+01  0.103044D+00 -0.154566D+00
      8  0.179520D+01  0.103044D+01  0.162177D+00 -0.630458D-01  0.945688D-01
      9 -0.179520D+00 -0.103044D+00 -0.630458D-01 -0.461977D+00 -0.945688D-02
     10  0.269279D+00  0.154566D+00  0.945688D-01 -0.945688D-02 -0.454096D+00
                6             7             8             9            10 
      6 -0.111031D+02
      7 -0.298589D+01 -0.167921D+01
      8  0.281512D-01  0.477156D+00 -0.615679D+00
      9 -0.281512D-02 -0.477156D-01  0.412887D-01 -0.206921D+00
     10  0.422268D-02  0.715735D-01 -0.619331D-01  0.619331D-02 -0.212082D+00
 Old MOs in SymVFV:
                 1             2             3             4             5 
      1   0.701183D+00  0.703286D+00 -0.216831D+00  0.000000D+00  0.000000D+00
      2   0.142923D-01  0.352651D-01  0.483201D+00  0.000000D+00  0.000000D+00
      3   0.461902D-02  0.117141D-01  0.220287D+00  0.100120D+00 -0.340691D-01
      4  -0.461902D-03 -0.117141D-02 -0.220287D-01  0.467839D+00  0.364715D+00
      5   0.692853D-03  0.175712D-02  0.330430D-01 -0.355576D+00  0.470271D+00
      6   0.701183D+00 -0.703286D+00 -0.216831D+00  0.000000D+00  0.000000D+00
      7   0.142923D-01 -0.352651D-01  0.483201D+00  0.000000D+00  0.000000D+00
      8  -0.461902D-02  0.117141D-01 -0.220287D+00  0.100120D+00 -0.340691D-01
      9   0.461902D-03 -0.117141D-02  0.220287D-01  0.467839D+00  0.364715D+00
     10  -0.692853D-03  0.175712D-02 -0.330430D-01 -0.355576D+00  0.470271D+00
                 6             7             8             9            10 
      1  -0.174442D+00  0.351298D-01  0.000000D+00  0.000000D+00 -0.106860D+00
      2   0.714232D+00 -0.388498D+00  0.000000D+00  0.000000D+00  0.221141D+01
      3  -0.319213D+00  0.635442D+00  0.101670D+00 -0.127317D+00  0.163160D+01
      4   0.319213D-01 -0.635442D-01  0.909920D+00  0.850656D-01 -0.163160D+00
      5  -0.478819D-01  0.953163D-01 -0.711864D-01  0.905491D+00  0.244739D+00
      6   0.174442D+00  0.351298D-01  0.000000D+00  0.000000D+00  0.106860D+00
      7  -0.714232D+00 -0.388498D+00  0.000000D+00  0.000000D+00 -0.221141D+01
      8  -0.319213D+00 -0.635442D+00 -0.101670D+00  0.127317D+00  0.163160D+01
      9   0.319213D-01  0.635442D-01 -0.909920D+00 -0.850656D-01 -0.163160D+00
     10  -0.478819D-01 -0.953163D-01  0.711864D-01 -0.905491D+00  0.244739D+00
 FMO in SymVFV:
                1             2             3             4             5 
      1 -0.111152D+02
      2  0.000000D+00 -0.111033D+02
      3  0.000000D+00  0.000000D+00 -0.107567D+01
      4  0.000000D+00  0.000000D+00  0.000000D+00 -0.476908D+00
      5  0.000000D+00  0.000000D+00  0.000000D+00  0.000000D+00 -0.476908D+00
      6  0.000000D+00  0.000000D+00  0.000000D+00  0.000000D+00  0.000000D+00
      7  0.000000D+00  0.000000D+00  0.000000D+00  0.000000D+00  0.000000D+00
      8  0.000000D+00  0.000000D+00  0.000000D+00  0.000000D+00  0.000000D+00
      9  0.000000D+00  0.000000D+00  0.000000D+00  0.000000D+00  0.000000D+00
     10  0.000000D+00  0.000000D+00  0.000000D+00  0.000000D+00  0.000000D+00
                6             7             8             9            10 
      6 -0.402244D+00
      7  0.000000D+00  0.975177D-02
      8  0.000000D+00  0.000000D+00  0.447805D+00
      9  0.000000D+00  0.000000D+00  0.000000D+00  0.447805D+00
     10  0.000000D+00  0.000000D+00  0.000000D+00  0.000000D+00  0.164664D+01
 IB=1 NBFU=   10 NOccSy=    6
 Diag= -11.11516 -11.10333  -1.07567  -0.47691  -0.47691
 Diag=  -0.40224   0.00975   0.44781   0.44781   1.64664
 Gap=     0.412 Goal=   None    Shift=    0.000
 NOrbs=    10 LenY=    33550749 NE2=     3355074 LScr= 7
 IAlgDg is returning  0.
 DiagDN:  BShift= -1.00D+00
 IB=1 NBFU=   10 NOccSy=    6
 Eig= -11.11516 -11.10333  -1.07567  -0.47691  -0.47691
 Eig=  -0.40224   0.00975   0.44781   0.44781   1.64664
 Alpha MO coefficients at cycle    7:
                 1             2             3             4             5 
      1   0.701183D+00  0.703286D+00 -0.216831D+00  0.000000D+00  0.000000D+00
      2   0.142923D-01  0.352651D-01  0.483201D+00  0.000000D+00  0.000000D+00
      3   0.461902D-02  0.117141D-01  0.220287D+00 -0.102856D+00  0.246058D-01
      4  -0.461902D-03 -0.117141D-02 -0.220287D-01 -0.201084D+00  0.558083D+00
      5   0.692853D-03  0.175712D-02  0.330430D-01  0.551651D+00  0.208016D+00
      6   0.701183D+00 -0.703286D+00 -0.216831D+00  0.000000D+00  0.000000D+00
      7   0.142923D-01 -0.352651D-01  0.483201D+00  0.000000D+00  0.000000D+00
      8  -0.461902D-02  0.117141D-01 -0.220287D+00 -0.102856D+00  0.246058D-01
      9   0.461902D-03 -0.117141D-02  0.220287D-01 -0.201084D+00  0.558083D+00
     10  -0.692853D-03  0.175712D-02 -0.330430D-01  0.551651D+00  0.208016D+00
                 6             7             8             9            10 
      1  -0.174442D+00  0.351298D-01  0.000000D+00  0.000000D+00 -0.106860D+00
      2   0.714232D+00 -0.388498D+00  0.000000D+00  0.000000D+00  0.221141D+01
      3  -0.319213D+00  0.635442D+00  0.103696D+00 -0.125672D+00  0.163160D+01
      4   0.319213D-01 -0.635442D-01  0.908441D+00  0.996287D-01 -0.163160D+00
      5  -0.478819D-01  0.953163D-01 -0.856803D-01  0.904234D+00  0.244739D+00
      6   0.174442D+00  0.351298D-01  0.000000D+00  0.000000D+00  0.106860D+00
      7  -0.714232D+00 -0.388498D+00  0.000000D+00  0.000000D+00 -0.221141D+01
      8  -0.319213D+00 -0.635442D+00 -0.103696D+00  0.125672D+00  0.163160D+01
      9   0.319213D-01  0.635442D-01 -0.908441D+00 -0.996287D-01 -0.163160D+00
     10  -0.478819D-01 -0.953163D-01  0.856803D-01 -0.904234D+00  0.244739D+00
 Alpha density matrix  at cycle    7:
                1             2             3             4             5 
      1  0.106371D+01
      2 -0.194542D+00  0.745058D+00
      3  0.193964D-01 -0.121070D+00  0.161766D+00
      4 -0.193964D-02  0.121070D-01  0.193566D-01  0.353397D+00
      5  0.290946D-02 -0.181605D-01 -0.290349D-01  0.290349D-02  0.350977D+00
      6  0.136318D-01  0.503957D-02 -0.108449D+00  0.108449D-01 -0.162673D-01
      7  0.503957D-02 -0.277684D+00  0.334088D+00 -0.334088D-01  0.501131D-01
      8  0.108449D+00 -0.334088D+00  0.646712D-01  0.290661D-01 -0.435992D-01
      9 -0.108449D-01  0.334088D-01  0.290661D-01  0.352426D+00  0.435992D-02
     10  0.162673D-01 -0.501131D-01 -0.435992D-01  0.435992D-02  0.348793D+00
                6             7             8             9            10 
      6  0.106371D+01
      7 -0.194542D+00  0.745058D+00
      8 -0.193964D-01  0.121070D+00  0.161766D+00
      9  0.193964D-02 -0.121070D-01  0.193566D-01  0.353397D+00
     10 -0.290946D-02  0.181605D-01 -0.290349D-01  0.290349D-02  0.350977D+00
 RMSDP=7.82D-10 MaxDP=3.79D-09 DE=-1.66D-11 OVMax= 0.00D+00

 SCF Done:  E(RHF) =  -74.2765541765     A.U. after    7 cycles
            NFock=  7  Conv=0.78D-09     -V/T= 1.9835
 KE= 7.552451434811D+01 PE=-2.122734865474D+02 EE= 4.372426007892D+01
 Alpha MOs:
                           1         2         3         4         5
     Eigenvalues --   -11.11516 -11.10333  -1.07567  -0.47691  -0.47691
   1                    0.70118   0.70329  -0.21683   0.00000   0.00000
   2                    0.01429   0.03527   0.48320   0.00000   0.00000
   3                    0.00462   0.01171   0.22029  -0.10286   0.02461
   4                   -0.00046  -0.00117  -0.02203  -0.20108   0.55808
   5                    0.00069   0.00176   0.03304   0.55165   0.20802
   6                    0.70118  -0.70329  -0.21683   0.00000   0.00000
   7                    0.01429  -0.03527   0.48320   0.00000   0.00000
   8                   -0.00462   0.01171  -0.22029  -0.10286   0.02461
   9                    0.00046  -0.00117   0.02203  -0.20108   0.55808
  10                   -0.00069   0.00176  -0.03304   0.55165   0.20802
                           6         7         8         9        10
     Eigenvalues --    -0.40224   0.00975   0.44781   0.44781   1.64664
   1                   -0.17444   0.03513   0.00000   0.00000  -0.10686
   2                    0.71423  -0.38850   0.00000   0.00000   2.21141
   3                   -0.31921   0.63544   0.10370  -0.12567   1.63160
   4                    0.03192  -0.06354   0.90844   0.09963  -0.16316
   5                   -0.04788   0.09532  -0.08568   0.90423   0.24474
   6                    0.17444   0.03513   0.00000   0.00000   0.10686
   7                   -0.71423  -0.38850   0.00000   0.00000  -2.21141
   8                   -0.31921  -0.63544  -0.10370   0.12567   1.63160
   9                    0.03192   0.06354  -0.90844  -0.09963  -0.16316
  10                   -0.04788  -0.09532   0.08568  -0.90423   0.24474
 Final density matrix:
                1             2             3             4             5 
      1  0.106371D+01
      2 -0.194542D+00  0.745058D+00
      3  0.193964D-01 -0.121070D+00  0.161766D+00
      4 -0.193964D-02  0.121070D-01  0.193566D-01  0.353397D+00
      5  0.290946D-02 -0.181605D-01 -0.290349D-01  0.290349D-02  0.350977D+00
      6  0.136318D-01  0.503957D-02 -0.108449D+00  0.108449D-01 -0.162673D-01
      7  0.503957D-02 -0.277684D+00  0.334088D+00 -0.334088D-01  0.501131D-01
      8  0.108449D+00 -0.334088D+00  0.646712D-01  0.290661D-01 -0.435992D-01
      9 -0.108449D-01  0.334088D-01  0.290661D-01  0.352426D+00  0.435992D-02
     10  0.162673D-01 -0.501131D-01 -0.435992D-01  0.435992D-02  0.348793D+00
                6             7             8             9            10 
      6  0.106371D+01
      7 -0.194542D+00  0.745058D+00
      8 -0.193964D-01  0.121070D+00  0.161766D+00
      9  0.193964D-02 -0.121070D-01  0.193566D-01  0.353397D+00
     10 -0.290946D-02  0.181605D-01 -0.290349D-01  0.290349D-02  0.350977D+00
 Total density matrix:
                1             2             3             4             5 
      1  0.212743D+01
      2 -0.389084D+00  0.149012D+01
      3  0.387928D-01 -0.242140D+00  0.323533D+00
      4 -0.387928D-02  0.242140D-01  0.387132D-01  0.706794D+00
      5  0.581893D-02 -0.363210D-01 -0.580698D-01  0.580698D-02  0.701954D+00
      6  0.272635D-01  0.100791D-01 -0.216898D+00  0.216898D-01 -0.325347D-01
      7  0.100791D-01 -0.555368D+00  0.668175D+00 -0.668175D-01  0.100226D+00
      8  0.216898D+00 -0.668175D+00  0.129342D+00  0.581323D-01 -0.871984D-01
      9 -0.216898D-01  0.668175D-01  0.581323D-01  0.704852D+00  0.871984D-02
     10  0.325347D-01 -0.100226D+00 -0.871984D-01  0.871984D-02  0.697585D+00
                6             7             8             9            10 
      6  0.212743D+01
      7 -0.389084D+00  0.149012D+01
      8 -0.387928D-01  0.242140D+00  0.323533D+00
      9  0.387928D-02 -0.242140D-01  0.387132D-01  0.706794D+00
     10 -0.581893D-02  0.363210D-01 -0.580698D-01  0.580698D-02  0.701954D+00
 -W:
                1             2             3             4             5 
      1  0.220390D+02
      2  0.447903D+00  0.944853D+00
      3  0.196984D+00  0.562198D-01  0.200562D+00
      4 -0.196984D-01 -0.562198D-02  0.138360D-01  0.337538D+00
      5  0.295477D-01  0.843296D-02 -0.207540D-01  0.207540D-02  0.335809D+00
      6  0.227040D-01 -0.453147D+00 -0.258505D+00  0.258505D-01 -0.387757D-01
      7 -0.453147D+00  0.688355D-01  0.404707D+00 -0.404707D-01  0.607060D-01
      8  0.258505D+00 -0.404707D+00 -0.918107D-02  0.348103D-01 -0.522154D-01
      9 -0.258505D-01  0.404707D-01  0.348103D-01  0.335441D+00  0.522154D-02
     10  0.387757D-01 -0.607060D-01 -0.522154D-01  0.522154D-02  0.331090D+00
                6             7             8             9            10 
      6  0.220390D+02
      7  0.447903D+00  0.944853D+00
      8 -0.196984D+00 -0.562198D-01  0.200562D+00
      9  0.196984D-01  0.562198D-02  0.138360D-01  0.337538D+00
     10 -0.295477D-01 -0.843296D-02 -0.207540D-01  0.207540D-02  0.335809D+00
 Leave Link  502 at Sun Dec  7 10:45:51 2014, MaxMem=    33554432 cpu:               0.2 elap:               0.3
 (Enter /Volumes/Gaussian/gdvh37p/gdv/l601.exe)
 Copying SCF densities to generalized density rwf, IOpCl= 0 IROHF=0.

 **********************************************************************

            Population analysis using the SCF density.

 **********************************************************************

 Alpha  occ. eigenvalues --  -11.11516 -11.10333  -1.07567  -0.47691  -0.47691
 Alpha  occ. eigenvalues --   -0.40224
 Alpha virt. eigenvalues --    0.00975   0.44781   0.44781   1.64664
          Condensed to atoms (all electrons):
               1          2
     1  C    5.156557   0.843443
     2  C    0.843443   5.156557
 Mulliken charges:
               1
     1  C    0.000000
     2  C    0.000000
 Sum of Mulliken charges =   0.00000
 Mulliken charges with hydrogens summed into heavy atoms:
               1
     1  C    0.000000
     2  C    0.000000
 Electronic spatial extent (au):  <R**2>=             43.3391
 Charge=              0.0000 electrons
 Dipole moment (field-independent basis, Debye):
    X=              0.0000    Y=              0.0000    Z=              0.0000  Tot=              0.0000
 Quadrupole moment (field-independent basis, Debye-Ang):
   XX=             -8.1220   YY=            -10.2206   ZZ=            -10.1941
   XY=             -0.2120   XZ=              0.3180   YZ=             -0.0318
 Traceless Quadrupole moment (field-independent basis, Debye-Ang):
   XX=              1.3902   YY=             -0.7084   ZZ=             -0.6819
   XY=             -0.2120   XZ=              0.3180   YZ=             -0.0318
 Octapole moment (field-independent basis, Debye-Ang**2):
  XXX=            -12.1830  YYY=             -1.5331  ZZZ=             -2.2937  XYY=             -5.1315
  XXY=             -0.6181  XXZ=             -0.2912  XZZ=             -5.0494  YZZ=             -0.5145
  YYZ=             -0.7697  XYZ=             -0.0159
 Hexadecapole moment (field-independent basis, Debye-Ang**3):
 XXXX=            -31.1933 YYYY=             -8.6479 ZZZZ=             -8.9870 XXXY=             -0.3003
 XXXZ=             -1.3770 YYYX=             -0.1738 YYYZ=             -0.0261 ZZZX=             -2.0306
 ZZZY=             -0.0263 XXYY=             -7.3811 XXZZ=             -7.3398 YYZZ=             -2.9396
 XXYZ=             -0.0278 YYXZ=             -0.6816 ZZXY=             -0.0604
 N-N= 1.874815794385D+01 E-N=-2.122734865301D+02  KE= 7.552451434811D+01
 No NMR shielding tensors so no spin-rotation constants.
 Leave Link  601 at Sun Dec  7 10:45:52 2014, MaxMem=    33554432 cpu:               0.1 elap:               0.1
 (Enter /Volumes/Gaussian/gdvh37p/gdv/l9999.exe)

 Test job not archived.
 1\1\GINC-VALPARAISO\SP\RHF\STO-3G\C2\XSLI\07-Dec-2014\0\\#p hf/sto-3g 
 GFInput nosymm scf=incore 6d scf=tight iop(3/33=10,5/33=10)\\d\\0,1\C,
 0,0.,0.1,0.\C,0,1.,0.,0.15\\Version=EM64M-GDVRevH.37+\HF=-74.2765542\R
 MSD=7.823e-10\Dipole=0.,0.,0.\Quadrupole=1.0336093,-0.5266548,-0.50695
 45,-0.1576024,0.2364037,-0.0236404\PG=D*H [C*(C1.C1)]\\@


 ALL OUR THINKING ABOUT NATURE MUST NECESSARILY MOVE IN CIRCLES OR SPIRALS;
 FOR WE CAN ONLY UNDERSTAND NATURE IF WE THINK ABOUT HER, AND WE CAN ONLY
 THINK BECAUSE OUR BRAIN IS BUILT IN ACCORDANCE WITH NATURE'S LAWS.

                                             -- TIMOTHY FERRIS, "GALAXIES"
 Job cpu time:       0 days  0 hours  0 minutes  0.8 seconds.
 Elapsed time:       0 days  0 hours  0 minutes  1.0 seconds.
 File lengths (MBytes):  RWF=      5 Int=      0 D2E=      0 Chk=     10 Scr=      1
 Normal termination of Gaussian DV at Sun Dec  7 10:45:52 2014.
