 Entering Gaussian System, Link 0=gdv
 Input=5.com
 Output=5.log
 Initial command:
 /home/gauss/gdv/l1.exe /home/xsli/TestCode/Gau-16026.inp -scrdir=/home/xsli/TestCode/
 Entering Link 1 = /home/gauss/gdv/l1.exe PID=     16027.
  
 Copyright (c) 1988,1990,1992,1993,1995,1998,2003,2004, Gaussian, Inc.
                  All Rights Reserved.
  
 This is the private, development version of the
 the Gaussian(R) DV system of programs. It is based on
 the Gaussian(R) 03 system (copyright 2003, Gaussian, Inc.),
 the Gaussian(R) 98 system (copyright 1998, Gaussian, Inc.),
 the Gaussian(R) 94 system (copyright 1995, Gaussian, Inc.),
 the Gaussian 92(TM) system (copyright 1992, Gaussian, Inc.),
 the Gaussian 90(TM) system (copyright 1990, Gaussian, Inc.),
 the Gaussian 88(TM) system (copyright 1988, Gaussian, Inc.),
 the Gaussian 86(TM) system (copyright 1986, Carnegie Mellon
 University), and the Gaussian 82(TM) system (copyright 1983,
 Carnegie Mellon University). Gaussian is a federally registered
 trademark of Gaussian, Inc.
  
 This software contains proprietary and confidential information,
 including trade secrets, belonging to Gaussian, Inc.
  
 This software is provided under written license and may be
 used, copied, transmitted, or stored only in accord with that
 written license.
  
 The following legend is applicable only to US Government
 contracts under FAR:
  
                    RESTRICTED RIGHTS LEGEND
  
 Use, reproduction and disclosure by the US Government is
 subject to restrictions as set forth in subparagraphs (a)
 and (c) of the Commercial Computer Software - Restricted
 Rights clause in FAR 52.227-19.
  
 Gaussian, Inc.
 340 Quinnipiac St., Bldg. 40, Wallingford CT 06492
  
  
 ---------------------------------------------------------------
 Warning -- This program may not be used in any manner that
 competes with the business of Gaussian, Inc. or will provide
 assistance to any competitor of Gaussian, Inc.  The licensee
 of this program is prohibited from giving any competitor of
 Gaussian, Inc. access to this program.  By using this program,
 the user acknowledges that Gaussian, Inc. is engaged in the
 business of creating and licensing software in the field of
 computational chemistry and represents and warrants to the
 licensee that it is not a competitor of Gaussian, Inc. and that
 it will not use this program in any manner prohibited above.
 ---------------------------------------------------------------
  

 Cite this work as:
 Gaussian Development Version, Revision D.02,
 M. J. Frisch, G. W. Trucks, H. B. Schlegel, G. E. Scuseria, 
 M. A. Robb, J. R. Cheeseman, J. A. Montgomery, Jr., T. Vreven, 
 K. N. Kudin, J. C. Burant, J. M. Millam, S. S. Iyengar, J. Tomasi, 
 V. Barone, B. Mennucci, M. Cossi, G. Scalmani, N. Rega, 
 G. A. Petersson, H. Nakatsuji, M. Hada, M. Ehara, K. Toyota, 
 R. Fukuda, J. Hasegawa, M. Ishida, T. Nakajima, Y. Honda, O. Kitao, 
 H. Nakai, M. Klene, X. Li, J. E. Knox, H. P. Hratchian, J. B. Cross, 
 V. Bakken, C. Adamo, J. Jaramillo, R. Gomperts, R. E. Stratmann, 
 O. Yazyev, A. J. Austin, R. Cammi, C. Pomelli, J. W. Ochterski, 
 P. Y. Ayala, K. Morokuma, G. A. Voth, P. Salvador, J. J. Dannenberg, 
 V. G. Zakrzewski, S. Dapprich, A. D. Daniels, M. C. Strain, 
 O. Farkas, D. K. Malick, A. D. Rabuck, K. Raghavachari, 
 J. B. Foresman, J. V. Ortiz, Q. Cui, A. G. Baboul, S. Clifford, 
 J. Cioslowski, B. B. Stefanov, G. Liu, A. Liashenko, P. Piskorz, 
 I. Komaromi, R. L. Martin, D. J. Fox, T. Keith, M. A. Al-Laham, 
 C. Y. Peng, A. Nanayakkara, M. Challacombe, P. M. W. Gill, 
 B. Johnson, W. Chen, M. W. Wong, C. Gonzalez, and J. A. Pople, 
 Gaussian, Inc., Wallingford CT, 2004.
 
 ******************************************
 Gaussian DV:  AM64L-GDVRevD.02 12-Jun-2005
                15-May-2006 
 ******************************************
 %chk=5.chk
 %subst l302 .
 %subst l502 .
 ----------------------------------------------------------------------
 #p hf/sto-3g iop(3/1=123456,3/33=5,4/33=5,5/33=10) GFInput nosymm scf=
 incore 6d scf=tight guess=read
 ----------------------------------------------------------------------
 1/38=1/1;
 2/15=1,17=6,18=5,40=1/2;
 3/1=123456,6=3,8=2,11=9,16=1,24=10,25=1,30=1,33=5/1,2,3;
 4/5=1,33=5/1;
 5/5=3,32=2,33=10,38=6/2;
 6/7=2,8=2,9=2,10=2,28=1/1;
 99/5=1,9=1/99;
 Leave Link    1 at Mon May 15 14:56:46 2006, MaxMem=          0 cpu:       0.5
 (Enter /home/gauss/gdv/l101.exe)
 -
 d
 -
 Symbolic Z-matrix:
 Charge =  0 Multiplicity = 1
 c                     0.        0.1       0. 
 
                    Isotopes and Nuclear Properties:
 (Nuclear quadrupole moments (NQMom) in fm**2, nuclear magnetic moments (NMagM)
  in nuclear magnetons)

  Atom         1
 IAtWgt=          12
 AtmWgt=  12.0000000
 NucSpn=           0
 AtZEff=   0.0000000
 NQMom=    0.0000000
 NMagM=    0.0000000
 Leave Link  101 at Mon May 15 14:56:46 2006, MaxMem=    6291456 cpu:       0.3
 (Enter /home/gauss/gdv/l202.exe)
                          Input orientation:                          
 ---------------------------------------------------------------------
 Center     Atomic     Atomic              Coordinates (Angstroms)
 Number     Number      Type              X           Y           Z
 ---------------------------------------------------------------------
    1          6             0        0.000000    0.100000    0.000000
 ---------------------------------------------------------------------
 Symmetry turned off by external request.
 Stoichiometry    C
 Framework group  OH[O(C)]
 Deg. of freedom     0
 Full point group                 OH      NOp  48
 Leave Link  202 at Mon May 15 14:56:47 2006, MaxMem=    6291456 cpu:       0.1
Taking exe name from GAUSS_EXEDIR -- /home/gauss/gdv/l301.exe.

executing /home/gauss/gdv/l301.exe 0 5.chk 1 /home/xsli/TestCode/Gau-16027.int 0 /home/xsli/TestCode/Gau-16027.rwf 0 /home/xsli/TestCode/Gau-16027.d2e 0 /home/xsli/TestCode/Gau-16027.scr 0 /home/xsli/TestCode/Gau-16026.inp 0 junk.out 0 /home/xsli/TestCode/Gau-16027.nex 0

numenv is 53
myenvir[0] is _DSM_BARRIER=SHM
myenvir[1] is SUPPORTED=en_US.UTF-8:en_US:en
myenvir[2] is HOSTNAME=Bohr
myenvir[3] is GAUSS_ARCHDIR=/home/gauss/gdv/arch
myenvir[4] is TERM=xterm
myenvir[5] is HOST=Bohr
myenvir[6] is SHELL=/bin/tcsh
myenvir[7] is MAKEFLAGS= CSIZE=2097152 CSIZEW=256 MACHTY=k8-64 GAULIBU=util.a BLAS1=bsd/libf77blas-amd64.a BLAS2=bsd/libatlas-amd64.a OPTOI= I8FLAG=-i8 MMODEL='-mcmodel=medium' I8CPP1=-DI64 I8CPP2=-DP64 I8CPP3=-DPACK64 I8CPP4=-DUSE_I2 VECTOR4= PGISSELIB=
myenvir[8] is SSH_CLIENT=::ffff:192.168.0.110 3956 22
myenvir[9] is WINDOWID=6291472
myenvir[10] is QTDIR=/usr/lib64/qt-3.3
myenvir[11] is gdvroot=/home/gauss
myenvir[12] is GROUP=users
myenvir[13] is USER=xsli
myenvir[14] is LD_LIBRARY_PATH=/home/gauss/gdv/bsd:/home/gauss/gdv/local:/home/gauss/gdv/extras:/home/gauss/gdv:/home/gauss/gdv/bsd:/home/gauss/gdv/local:/home/gauss/gdv/extras:/home/gauss/gdv:/home/gauss/gv/lib:/home/gauss/gv/lib
myenvir[15] is LS_COLORS=no=00:fi=00:di=00;34:ln=00;36:pi=40;33:so=00;35:bd=40;33;01:cd=40;33;01:or=01;05;37;41:mi=01;05;37;41:ex=00;32:*.cmd=00;32:*.exe=00;32:*.com=00;32:*.btm=00;32:*.bat=00;32:*.sh=00;32:*.csh=00;32:*.tar=00;31:*.tgz=00;31:*.arj=00;31:*.taz=00;31:*.lzh=00;31:*.zip=00;31:*.z=00;31:*.Z=00;31:*.gz=00;31:*.bz2=00;31:*.bz=00;31:*.tz=00;31:*.rpm=00;31:*.cpio=00;31:*.jpg=00;35:*.gif=00;35:*.bmp=00;35:*.xbm=00;35:*.xpm=00;35:*.png=00;35:*.tif=00;35:
myenvir[16] is LINDA_FORTRAN_LINK=pgf77 -i8 -mcmodel=medium
myenvir[17] is HOSTTYPE=x86_64-linux
myenvir[18] is KDEDIR=/usr
myenvir[19] is GAUSS_SCR=/home/scratch
myenvir[20] is PGI=/usr/pgi
myenvir[21] is MAIL=/var/spool/mail/xsli
myenvir[22] is PATH=/usr/oompi-1.0.4/bin:/usr/mpi/bin:/usr/mpi/lib:/usr/mpi/include:/usr/lib:/usr/include:/usr/pgi/linux86-64/6.1/bin:/usr/local:/usr/oompi-1.0.4/bin:/usr/mpi/bin:/usr/mpi/lib:/usr/mpi/include:/usr/lib:/usr/include:/usr/pgi/linux86-64/6.1/bin:/usr/local:/usr/kerberos/bin:/usr/local/bin:/bin:/usr/bin:/home/gauss/gdv/bsd:/home/gauss/gdv/local:/home/gauss/gdv/extras:/home/gauss/gdv:/home/gauss/gdv/bsd:/home/gauss/gdv/local:/home/gauss/gdv/extras:/home/gauss/gdv:/usr/X11R6/bin
myenvir[23] is INPUTRC=/etc/inputrc
myenvir[24] is PWD=/home/xsli/TestCode
myenvir[25] is LANG=en_US.UTF-8
myenvir[26] is GAUSS_EXEDIR=/home/gauss/gdv/bsd:/home/gauss/gdv/local:/home/gauss/gdv/extras:/home/gauss/gdv
myenvir[27] is PERLLIB=/home/gauss/gdv/bsd:/home/gauss/gdv/bsd
myenvir[28] is PGIDIR=/usr/pgi/linux86-64/6.1
myenvir[29] is LM_LICENSE_FILE=/usr/pgi/license.dat
myenvir[30] is LINDA_FORTRAN=pgf77 -i8 -mcmodel=medium
myenvir[31] is SSH_ASKPASS=/usr/libexec/openssh/gnome-ssh-askpass
myenvir[32] is _RLD_ARGS=-log /dev/null
myenvir[33] is SHLVL=2
myenvir[34] is HOME=/home/xsli
myenvir[35] is OSTYPE=linux
myenvir[36] is POSTFL_FORTRAN=pgf77 -i8 -mcmodel=medium
myenvir[37] is VENDOR=unknown
myenvir[38] is GV_DIR=/home/gauss/gv
myenvir[39] is MACHTYPE=x86_64
myenvir[40] is LOGNAME=xsli
myenvir[41] is SSH_CONNECTION=::ffff:192.168.0.110 3956 ::ffff:192.168.0.111 22
myenvir[42] is LESSOPEN=|/usr/bin/lesspipe.sh %s
myenvir[43] is DISPLAY=localhost:12.0
myenvir[44] is GDVBASIS=/home/gauss/gdv/basis
myenvir[45] is G_BROKEN_FILENAMES=1
myenvir[46] is GAUSS_LEXEDIR=/home/gauss/gdv/linda-exe
myenvir[47] is _=/home/gauss/gdv/l1.exe
myenvir[48] is MPC_GANG=OFF
myenvir[49] is GAUSS_NPROC=1
myenvir[50] is OMP_NUM_THREADS=1
myenvir[51] is NCPUS=1
myenvir[52] is GAUSS_NPROCL=1
 Contents of /IOp/:
        123456            0            0            0            0
             3            0            2            0            0
             9            0            0            0            0
             1            0            0            0            0
             0            0            0           10            1
             0            0            0            0            1
             0            0            5            0            0
             0            0            0            0            0
             0            0            0            0            0
             0            0            0            0            0
             0            0            0            0            0
             0            0            0            0            0
             0            0            0            0            0
             0            0            0            0            0
             0            0            0            0            0
             0            0            0            0            0
             0            0            0            0            0
             0            0            0            0            0
             0            0            0            0            0
             0            0            0            0            0
             0            0            0            0            0
             0            0            0            0            0
             0            0            0            0            0
             0            0            0            0            0
             0            0            0            0            0
             0            0            0            0            0
             0            0            0            0            0
             0            0            0            0            0
             0            0            0            0            0
             0            0            0            0            0
             0            0            0            0            0
             0            0            0            0            0
             0            0            0            0            0
             0            0            0            0            0
             0            0            0            0            0
             0            0            0            0            0
             0            0            0            0            0
             0            0            0            0            0
             0            0            0            0            0
             0            0            0            0            0
 Contents of /Info/:
       10      10       0       0       0     101       1       1       2
 HF\STO-3G\                                                                      
                                                                                 
                                                                                 
                                                                                 
                                                                                 
                                                                                 
                                                                                 
                                                                                 
                                                                                 
                                                                                 
                                                                                 
                                                                                 
                                                                                 
                                                                                 
                                                                                 
                                                                                 
                                                                                 
                                                                                 
                                                                                 
         
 (Enter /home/gauss/gdv/l301.exe)
 Top of link  301.    Mon May 15 14:56:47 2006        0.00 cpu seconds.
 Standard basis: STO-3G (6D, 7F)
                         Coordinates in L301:                         
 ---------------------------------------------------------------------
 Center     Atomic     Atomic              Coordinates (Angstroms)
 Number     Number      Type              X           Y           Z
 ---------------------------------------------------------------------
    1          6             0        0.000000    0.100000    0.000000
 ---------------------------------------------------------------------
 Electric field displacement of shell     1 is  0.00D+00
 Electric field displacement of shell     2 is  0.00D+00
 AO basis set in the form of general basis input:
      1 0
 S   3 1.00       0.000000000000
      0.7161683735D+02  0.1543289673D+00
      0.1304509632D+02  0.5353281423D+00
      0.3530512160D+01  0.4446345422D+00
 SP   3 1.00       0.000000000000
      0.2941249355D+01 -0.9996722919D-01  0.1559162750D+00
      0.6834830964D+00  0.3995128261D+00  0.6076837186D+00
      0.2222899159D+00  0.7001154689D+00  0.3919573931D+00
 ****

 LdAtmC:  AtmChg=     6.000000
 AtZEff=  -3.6000000
 Integral buffers will be    131072 words long.
 Raffenetti 1 integral format.
 Two-electron integral symmetry is turned off.
     5 basis functions,    15 primitive gaussians,     5 cartesian basis functions
     3 alpha electrons        3 beta electrons
       nuclear repulsion energy         0.0000000000 Hartrees.
 IExCor=   0 DFT=F Ex=HF Corr=None ExCW=0 ScaHFX=  1.000000
 ScaDFX=  1.000000  1.000000  1.000000  1.000000
 IRadAn=      0 IRanWt=     -1 IRanGd=            0 ICorTp=0
 NAtoms=    1 NActive=    1 NUniq=    1 SFac= 7.50D-01 NAtFMM=   80 NAOKFM=F Big=F
 Omega=  0.000000  0.000000  0.000000
 Leave Link  301 at Mon May 15 14:56:47 2006, MaxMem=    6291456 cpu:       0.0
 ChainX:  /Info/:
       10      10       0       0       0     101       1       1       2
 HF\STO-3G\                                                                      
                                                                                 
                                                                                 
                                                                                 
                                                                                 
                                                                                 
                                                                                 
                                                                                 
                                                                                 
                                                                                 
                                                                                 
                                                                                 
                                                                                 
                                                                                 
                                                                                 
                                                                                 
                                                                                 
                                                                                 
                                                                                 
         
Taking exe name from subst 0, link 302, len 1, dir ..

executing ./l302.exe 0 5.chk 1 /home/xsli/TestCode/Gau-16027.int 0 /home/xsli/TestCode/Gau-16027.rwf 0 /home/xsli/TestCode/Gau-16027.d2e 0 /home/xsli/TestCode/Gau-16027.scr 0 /home/xsli/TestCode/Gau-16026.inp 0 junk.out 0 /home/xsli/TestCode/Gau-16027.nex 0

numenv is 53
myenvir[0] is _DSM_BARRIER=SHM
myenvir[1] is SUPPORTED=en_US.UTF-8:en_US:en
myenvir[2] is HOSTNAME=Bohr
myenvir[3] is GAUSS_ARCHDIR=/home/gauss/gdv/arch
myenvir[4] is TERM=xterm
myenvir[5] is HOST=Bohr
myenvir[6] is SHELL=/bin/tcsh
myenvir[7] is MAKEFLAGS= CSIZE=2097152 CSIZEW=256 MACHTY=k8-64 GAULIBU=util.a BLAS1=bsd/libf77blas-amd64.a BLAS2=bsd/libatlas-amd64.a OPTOI= I8FLAG=-i8 MMODEL='-mcmodel=medium' I8CPP1=-DI64 I8CPP2=-DP64 I8CPP3=-DPACK64 I8CPP4=-DUSE_I2 VECTOR4= PGISSELIB=
myenvir[8] is SSH_CLIENT=::ffff:192.168.0.110 3956 22
myenvir[9] is WINDOWID=6291472
myenvir[10] is QTDIR=/usr/lib64/qt-3.3
myenvir[11] is gdvroot=/home/gauss
myenvir[12] is GROUP=users
myenvir[13] is USER=xsli
myenvir[14] is LD_LIBRARY_PATH=/home/gauss/gdv/bsd:/home/gauss/gdv/local:/home/gauss/gdv/extras:/home/gauss/gdv:/home/gauss/gdv/bsd:/home/gauss/gdv/local:/home/gauss/gdv/extras:/home/gauss/gdv:/home/gauss/gv/lib:/home/gauss/gv/lib
myenvir[15] is LS_COLORS=no=00:fi=00:di=00;34:ln=00;36:pi=40;33:so=00;35:bd=40;33;01:cd=40;33;01:or=01;05;37;41:mi=01;05;37;41:ex=00;32:*.cmd=00;32:*.exe=00;32:*.com=00;32:*.btm=00;32:*.bat=00;32:*.sh=00;32:*.csh=00;32:*.tar=00;31:*.tgz=00;31:*.arj=00;31:*.taz=00;31:*.lzh=00;31:*.zip=00;31:*.z=00;31:*.Z=00;31:*.gz=00;31:*.bz2=00;31:*.bz=00;31:*.tz=00;31:*.rpm=00;31:*.cpio=00;31:*.jpg=00;35:*.gif=00;35:*.bmp=00;35:*.xbm=00;35:*.xpm=00;35:*.png=00;35:*.tif=00;35:
myenvir[16] is LINDA_FORTRAN_LINK=pgf77 -i8 -mcmodel=medium
myenvir[17] is HOSTTYPE=x86_64-linux
myenvir[18] is KDEDIR=/usr
myenvir[19] is GAUSS_SCR=/home/scratch
myenvir[20] is PGI=/usr/pgi
myenvir[21] is MAIL=/var/spool/mail/xsli
myenvir[22] is PATH=/usr/oompi-1.0.4/bin:/usr/mpi/bin:/usr/mpi/lib:/usr/mpi/include:/usr/lib:/usr/include:/usr/pgi/linux86-64/6.1/bin:/usr/local:/usr/oompi-1.0.4/bin:/usr/mpi/bin:/usr/mpi/lib:/usr/mpi/include:/usr/lib:/usr/include:/usr/pgi/linux86-64/6.1/bin:/usr/local:/usr/kerberos/bin:/usr/local/bin:/bin:/usr/bin:/home/gauss/gdv/bsd:/home/gauss/gdv/local:/home/gauss/gdv/extras:/home/gauss/gdv:/home/gauss/gdv/bsd:/home/gauss/gdv/local:/home/gauss/gdv/extras:/home/gauss/gdv:/usr/X11R6/bin
myenvir[23] is INPUTRC=/etc/inputrc
myenvir[24] is PWD=/home/xsli/TestCode
myenvir[25] is LANG=en_US.UTF-8
myenvir[26] is GAUSS_EXEDIR=/home/gauss/gdv/bsd:/home/gauss/gdv/local:/home/gauss/gdv/extras:/home/gauss/gdv
myenvir[27] is PERLLIB=/home/gauss/gdv/bsd:/home/gauss/gdv/bsd
myenvir[28] is PGIDIR=/usr/pgi/linux86-64/6.1
myenvir[29] is LM_LICENSE_FILE=/usr/pgi/license.dat
myenvir[30] is LINDA_FORTRAN=pgf77 -i8 -mcmodel=medium
myenvir[31] is SSH_ASKPASS=/usr/libexec/openssh/gnome-ssh-askpass
myenvir[32] is _RLD_ARGS=-log /dev/null
myenvir[33] is SHLVL=2
myenvir[34] is HOME=/home/xsli
myenvir[35] is OSTYPE=linux
myenvir[36] is POSTFL_FORTRAN=pgf77 -i8 -mcmodel=medium
myenvir[37] is VENDOR=unknown
myenvir[38] is GV_DIR=/home/gauss/gv
myenvir[39] is MACHTYPE=x86_64
myenvir[40] is LOGNAME=xsli
myenvir[41] is SSH_CONNECTION=::ffff:192.168.0.110 3956 ::ffff:192.168.0.111 22
myenvir[42] is LESSOPEN=|/usr/bin/lesspipe.sh %s
myenvir[43] is DISPLAY=localhost:12.0
myenvir[44] is GDVBASIS=/home/gauss/gdv/basis
myenvir[45] is G_BROKEN_FILENAMES=1
myenvir[46] is GAUSS_LEXEDIR=/home/gauss/gdv/linda-exe
myenvir[47] is _=/home/gauss/gdv/l1.exe
myenvir[48] is MPC_GANG=OFF
myenvir[49] is GAUSS_NPROC=1
myenvir[50] is OMP_NUM_THREADS=1
myenvir[51] is NCPUS=1
myenvir[52] is GAUSS_NPROCL=1
 Contents of /IOp/:
        123456            0            0            0            0
             3            0            2            0            0
             9            0            0            0            0
             1            0            0            0            0
             0            0            0           10            1
             0            0            0            0            1
             0            0            5            0            0
             0            0            0            0            0
             0            0            0            0            0
             0            0       100000            0            0
             0            0            0            0            0
             0            0            0            0            0
             0            0            0            0            0
             0            0            0            0            0
             0            0            0            0            0
             0            0            0            0            0
             0            0            0            0            0
             0            0            0            0            0
             0            0            0            0            0
             0            0            0            0            0
             0            0            0            0            0
             0            0            0            0            0
             0            0            0            0            0
             0            0            0            0            0
             0            0            0            0            0
             0            0            0            0            0
             0            0            0            0            0
             0            0            0            0            0
             0            0            0            0            0
             0            0            0            0            0
             0            0            0            0            0
             0            0            0            0            0
             0            0            0            0            0
             0            0            0            0            0
             0            0            0            0            0
             0            0            0            0            0
             0            0            0            0            0
             0            0            0            0            0
             0            0            0            0            0
             0            0            0            0            0
 Contents of /Info/:
       10      10       0       0       0     101       1       1       2
 HF\STO-3G\                                                                      
                                                                                 
                                                                                 
                                                                                 
                                                                                 
                                                                                 
                                                                                 
                                                                                 
                                                                                 
                                                                                 
                                                                                 
                                                                                 
                                                                                 
                                                                                 
                                                                                 
                                                                                 
                                                                                 
                                                                                 
                                                                                 
         
 (Enter ./l302.exe)
 Top of link  302.    Mon May 15 14:56:47 2006        0.00 cpu seconds.
 IOp(1)=   123456 DoDFJ is returning F
 NPDir=0 NMtPBC=     1 NCelOv=     1 NCel=       1 NClECP=     1 NCelD=      1
         NCelK=      1 NCelE2=     1 NClLst=     1 CellRange=     0.0.
 One-electron integrals computed using PRISM.
 Entering OneElI...
 OneElI was handed     6271405 working-precision words.
 Calculate overlap and kinetic energy integrals
    NBasis =   5  MinDer = 0  MaxDer = 0
 Requested accuracy = 0.1000D-12
 Overlap and Kinetic Integrals          
 Derivative Range = 0 to 2  Logicals = T F F F F F
 The Identity operator will be used
 PrsmSu:  NPrtUS=   1 ThrOK=F
 Top of Prism.        Mon May 15 14:56:47 2006        0.01 cpu seconds.
 PRISM was handed     6270272 working-precision words and     3 shell-pairs
 PRISM will use Minimum- Mop paths
 [0] accuracy = 0.10D-12   Chebyshev Delta = 0.12D-02   Critical T = 28.20


           Zone         Bra Derivative Range     Ket Derivative Range
           ==========================================================
             1                 0 to 2                   0 to 0
           ==========================================================

                             -------------------
                             The (ss|ss) Classes
 Not enough memory for any path:
 MxKBra=    9 MxKKet=    1 Memory=     6269290.
                             -------------------

       Available PRISM Paths: 29

    No. of target [m0|n0]   =    10
    No. of locations needed =    11

       T1    T2    T3    T4    T5    T6    T7    T8    T9   T10   T11   T12
       39 99999 99999 99999     0     0     0     0     0     0     0     0
   C1   C2   C3   C4   C5   C6   C7   C8   C9  C10  C11  C12  C13  C14  C15  C16
9999999999999999999999999999999999999999   10   10   10   10   10   10   10   10
    0    0    0    0    0    0    0    0   10   10   10   10   10   10   10   10

                   VR1     cost =      67
                   Bra-TRn cost =       9
                   Ket-TRn cost =       0

                   Space needed for drivers          =    1218
                   Space needed for driver formation =    1698

                   KBra   KKet   Path     Mops    Wds/S4    MaxCom 

                   C37 =       0
                   C38 =       0
 Prsmar:                       9      1     29       790       405        99       218       647

                             -------------------
                             The (Ps|ss) Classes
 Not enough memory for any path:
 MxKBra=    9 MxKKet=    1 Memory=     6267374.
                             -------------------

       Available PRISM Paths: 29

    No. of target [m0|n0]   =    20
    No. of locations needed =    21

       T1    T2    T3    T4    T5    T6    T7    T8    T9   T10   T11   T12
       96 99999 99999 99999     0     0     0     0     0     0     0     0
   C1   C2   C3   C4   C5   C6   C7   C8   C9  C10  C11  C12  C13  C14  C15  C16
9999999999999999999999999999999999999999   50   40   40   50   50   40   40   50
    0    0    0    0    0    0    0    0   40   40   40   40   40   40   40   40

                   VR1     cost =     174
                   Bra-TRn cost =      89
                   Ket-TRn cost =       0

                   Space needed for drivers          =    3546
                   Space needed for driver formation =    5275

                   KBra   KKet   Path     Mops    Wds/S4    MaxCom 

                   C37 =       0
                   C38 =       0
 Prsmar:                       9      1     29      2197       569       189       268       460

                             -------------------
                             The (PP|ss) Classes
 Not enough memory for any path:
 MxKBra=    9 MxKKet=    1 Memory=     6259493.
                             -------------------

       Available PRISM Paths: 29

    No. of target [m0|n0]   =    35
    No. of locations needed =    36

       T1    T2    T3    T4    T5    T6    T7    T8    T9   T10   T11   T12
      189 99999 99999 99999     0     0     0     0     0     0     0     0
   C1   C2   C3   C4   C5   C6   C7   C8   C9  C10  C11  C12  C13  C14  C15  C16
9999999999999999999999999999999999999999  230  160  160  230  230  160  160  230
    0    0    0    0    0    0    0    0  160  160  160  160  160  160  160  160

                   VR1     cost =     349
                   Bra-TRn cost =     764
                   Ket-TRn cost =       0

                   Space needed for drivers          =   12507
                   Space needed for driver formation =   21958

                   KBra   KKet   Path     Mops    Wds/S4    MaxCom 

                   C37 =       0
                   C38 =       0
 Prsmar:                       9      1     29      5821       872       324       412       300
 IPart=  0 NShTot=           3 NBatch=           3 AvBLen=         1.0
 End of Prism.        Mon May 15 14:56:47 2006        0.00 cpu seconds.
 *** Overlap *** 
                1             2             3             4             5 
      1  0.10000000000D+01
      2  0.24836239705D+00  0.10000000000D+01
      3  0.00000000000D+00  0.00000000000D+00  0.10000000000D+01
      4  0.00000000000D+00  0.00000000000D+00  0.00000000000D+00  0.10000000000D+01
      5  0.00000000000D+00  0.00000000000D+00  0.00000000000D+00  0.00000000000D+00  0.10000000000D+01
 *** Kinetic Energy *** 
                1             2             3             4             5 
      1  0.15891121815D+02
      2 -0.85889994152D-01  0.47224999259D+00
      3  0.00000000000D+00  0.00000000000D+00  0.14777280907D+01
      4  0.00000000000D+00  0.00000000000D+00  0.00000000000D+00  0.14777280907D+01
      5  0.00000000000D+00  0.00000000000D+00  0.00000000000D+00  0.00000000000D+00  0.14777280907D+01
 xsli test   5.061683880266191        259.3091906304034     
 After ST integrals.  Mon May 15 14:56:47 2006        0.00 cpu seconds.
 Entering OneElI...
 OneElI was handed     6271405 working-precision words.
 Calculate potential energy integrals
    NBasis =   5  MinDer = 0  MaxDer = 0
 Requested accuracy = 0.1000D-12
 Nuclear Attraction Integrals           
 The Coulomb operator will be used
 PrsmSu:  NPrtUS=   1 ThrOK=F
 Top of Prism.        Mon May 15 14:56:47 2006        0.00 cpu seconds.
 PRISM was handed     6270272 working-precision words and     3 shell-pairs
 PRISM will use Minimum- Mop paths
 [0] accuracy = 0.10D-12   Chebyshev Delta = 0.12D-02   Critical T = 28.20


           Zone         Bra Derivative Range     Ket Derivative Range
           ==========================================================
             1                 0 to 0                   0 to 0
           ==========================================================

                             -------------------
                             The (ss|ss) Classes
 Not enough memory for any path:
 MxKBra=    9 MxKKet=    1 Memory=     6222272.
                             -------------------

       Available PRISM Paths:  1  4  5 29

    No. of target [m0|n0]   =     1
    No. of locations needed =     1

       T1    T2    T3    T4    T5    T6    T7    T8    T9   T10   T11   T12
        0     0 99999 99999     0     0     0     0     0     0     0     0
   C1   C2   C3   C4   C5   C6   C7   C8   C9  C10  C11  C12  C13  C14  C15  C16
    1    0    0    0    1    1    1    1    1    1    1    1    1    1    1    1
   -1    0    0    0   -1   -1   -1   -1   -1   -1   -1   -1   -1   -1   -1   -1

                   VR1     cost =       0
                   Bra-TRn cost =       0
                   Ket-TRn cost =       0

                   Space needed for drivers          =     156
                   Space needed for driver formation =     157

                   KBra   KKet   Path     Mops    Wds/S4    MaxCom 

                   C37 =       4
                   C38 =       4
 Prsmar:                       9      1      1        12       114         9        70      2299

                             -------------------
                             The (Ps|ss) Classes
 Not enough memory for any path:
 MxKBra=    9 MxKKet=    1 Memory=     6174075.
                             -------------------

       Available PRISM Paths:  1  4  5 29

    No. of target [m0|n0]   =     4
    No. of locations needed =     4

       T1    T2    T3    T4    T5    T6    T7    T8    T9   T10   T11   T12
        7    15 99999 99999    12    12    12    12     0     0     0     0
   C1   C2   C3   C4   C5   C6   C7   C8   C9  C10  C11  C12  C13  C14  C15  C16
    4    0    0    0    5    4    5    5    4    4    4    4    4    4    4    4
   -4    0    0    0   -5   -4   -5   -5   -4   -4   -4   -4   -4   -4   -4   -4

                   VR1     cost =      15
                   Bra-TRn cost =       0
                   Ket-TRn cost =       0

                   Space needed for drivers          =     629
                   Space needed for driver formation =     678

                   KBra   KKet   Path     Mops    Wds/S4    MaxCom 

                   C37 =      16
                   C38 =      20
 Prsmar:                       9      1      1        77       167        18       102      1569

                             -------------------
                             The (PP|ss) Classes
 Not enough memory for any path:
 MxKBra=    9 MxKKet=    1 Memory=     6172787.
                             -------------------

       Available PRISM Paths:  1  4  5 29

    No. of target [m0|n0]   =    10
    No. of locations needed =    11

       T1    T2    T3    T4    T5    T6    T7    T8    T9   T10   T11   T12
       39   123 99999 99999   102   111   102   111     0     0     0     0
   C1   C2   C3   C4   C5   C6   C7   C8   C9  C10  C11  C12  C13  C14  C15  C16
   17    0    0    0   23   10   23   23   16   16   16   16   16   16   16   16
  -17    0    0    0  -23  -10  -23  -23  -16  -16  -16  -16  -16  -16  -16  -16

                   VR1     cost =      67
                   Bra-TRn cost =      36
                   Ket-TRn cost =       0

                   Space needed for drivers          =    2765
                   Space needed for driver formation =    3199

                   KBra   KKet   Path     Mops    Wds/S4    MaxCom 

                   C37 =      40
                   C38 =      92
 Prsmar:                       9      1      1       450       314        27       228       834
 IPart=  0 NShTot=           3 NBatch=           3 AvBLen=         1.0
 End of Prism.        Mon May 15 14:56:47 2006        0.10 cpu seconds.
 After V integrals.   Mon May 15 14:56:47 2006        0.00 cpu seconds.
 ***** Potential Energy ***** 
                1             2             3             4             5 
      1  0.33652741213D+02
      2  0.41922288421D+01  0.51897665776D+01
      3  0.00000000000D+00  0.00000000000D+00  0.51482207374D+01
      4  0.00000000000D+00  0.00000000000D+00  0.00000000000D+00  0.51482207374D+01
      5  0.00000000000D+00  0.00000000000D+00  0.00000000000D+00  0.00000000000D+00  0.51482207374D+01
 xsli test   1256.527981220490     
 ****** Core Hamiltonian ****** 
                1             2             3             4             5 
      1 -0.17761619397D+02
      2 -0.42781188362D+01 -0.47175165850D+01
      3  0.00000000000D+00  0.00000000000D+00 -0.36704926467D+01
      4  0.00000000000D+00  0.00000000000D+00  0.00000000000D+00 -0.36704926467D+01
      5  0.00000000000D+00  0.00000000000D+00  0.00000000000D+00  0.00000000000D+00 -0.36704926467D+01
 After STV Ints       Mon May 15 14:56:47 2006        0.00 cpu seconds.
 After integral evalu Mon May 15 14:56:47 2006        0.00 cpu seconds.
 Top of SVDSVc.       Mon May 15 14:56:47 2006        0.00 cpu seconds.
 SVDSVc IR=1
 SVDSVc V= 1.25D+00 1.00D+00 1.00D+00 1.00D+00 7.52D-01
 Bot of SVDSVc.       Mon May 15 14:56:47 2006        0.00 cpu seconds.
 Vt*S*V: 
                1             2             3             4             5 
      1  0.10000000000D+01
      2  0.00000000000D+00  0.10000000000D+01
      3  0.00000000000D+00  0.00000000000D+00  0.10000000000D+01
      4  0.00000000000D+00  0.00000000000D+00  0.00000000000D+00  0.10000000000D+01
      5 -0.72478915231D-16  0.00000000000D+00  0.00000000000D+00  0.00000000000D+00  0.10000000000D+01
 TstOVc:  Largest diagonal error= 3.33D-16 IB=1 I=    1.
 TstOVc:  Largest same sym error= 7.25D-17 IB=1 I=    5 J=    1.
 Orthogonalized basis functions: 
                 1             2             3             4             5 
      1   0.632870D+00  0.000000D+00  0.000000D+00  0.000000D+00  0.815607D+00
      2   0.632870D+00  0.000000D+00  0.000000D+00  0.000000D+00 -0.815607D+00
      3   0.000000D+00  0.000000D+00  0.100000D+01  0.000000D+00  0.000000D+00
      4   0.000000D+00  0.000000D+00  0.000000D+00  0.100000D+01  0.000000D+00
      5   0.000000D+00  0.100000D+01  0.000000D+00  0.000000D+00  0.000000D+00
 NBasis=     5 RedAO= T  NBF=     5
 NBsUse=     5 1.00D-06 NBFU=     5
 Leave Link  302 at Mon May 15 14:56:47 2006, MaxMem=    6291456 cpu:       0.1
 ChainX:  /Info/:
       10      10       0       0       0     101       1       1       2
 HF\STO-3G\                                                                      
                                                                                 
                                                                                 
                                                                                 
                                                                                 
                                                                                 
                                                                                 
                                                                                 
                                                                                 
                                                                                 
                                                                                 
                                                                                 
                                                                                 
                                                                                 
                                                                                 
                                                                                 
                                                                                 
                                                                                 
                                                                                 
         
Taking exe name from GAUSS_EXEDIR -- /home/gauss/gdv/l303.exe.

executing /home/gauss/gdv/l303.exe 0 5.chk 1 /home/xsli/TestCode/Gau-16027.int 0 /home/xsli/TestCode/Gau-16027.rwf 0 /home/xsli/TestCode/Gau-16027.d2e 0 /home/xsli/TestCode/Gau-16027.scr 0 /home/xsli/TestCode/Gau-16026.inp 0 junk.out 0 /home/xsli/TestCode/Gau-16027.nex 0

numenv is 53
myenvir[0] is _DSM_BARRIER=SHM
myenvir[1] is SUPPORTED=en_US.UTF-8:en_US:en
myenvir[2] is HOSTNAME=Bohr
myenvir[3] is GAUSS_ARCHDIR=/home/gauss/gdv/arch
myenvir[4] is TERM=xterm
myenvir[5] is HOST=Bohr
myenvir[6] is SHELL=/bin/tcsh
myenvir[7] is MAKEFLAGS= CSIZE=2097152 CSIZEW=256 MACHTY=k8-64 GAULIBU=util.a BLAS1=bsd/libf77blas-amd64.a BLAS2=bsd/libatlas-amd64.a OPTOI= I8FLAG=-i8 MMODEL='-mcmodel=medium' I8CPP1=-DI64 I8CPP2=-DP64 I8CPP3=-DPACK64 I8CPP4=-DUSE_I2 VECTOR4= PGISSELIB=
myenvir[8] is SSH_CLIENT=::ffff:192.168.0.110 3956 22
myenvir[9] is WINDOWID=6291472
myenvir[10] is QTDIR=/usr/lib64/qt-3.3
myenvir[11] is gdvroot=/home/gauss
myenvir[12] is GROUP=users
myenvir[13] is USER=xsli
myenvir[14] is LD_LIBRARY_PATH=/home/gauss/gdv/bsd:/home/gauss/gdv/local:/home/gauss/gdv/extras:/home/gauss/gdv:/home/gauss/gdv/bsd:/home/gauss/gdv/local:/home/gauss/gdv/extras:/home/gauss/gdv:/home/gauss/gv/lib:/home/gauss/gv/lib
myenvir[15] is LS_COLORS=no=00:fi=00:di=00;34:ln=00;36:pi=40;33:so=00;35:bd=40;33;01:cd=40;33;01:or=01;05;37;41:mi=01;05;37;41:ex=00;32:*.cmd=00;32:*.exe=00;32:*.com=00;32:*.btm=00;32:*.bat=00;32:*.sh=00;32:*.csh=00;32:*.tar=00;31:*.tgz=00;31:*.arj=00;31:*.taz=00;31:*.lzh=00;31:*.zip=00;31:*.z=00;31:*.Z=00;31:*.gz=00;31:*.bz2=00;31:*.bz=00;31:*.tz=00;31:*.rpm=00;31:*.cpio=00;31:*.jpg=00;35:*.gif=00;35:*.bmp=00;35:*.xbm=00;35:*.xpm=00;35:*.png=00;35:*.tif=00;35:
myenvir[16] is LINDA_FORTRAN_LINK=pgf77 -i8 -mcmodel=medium
myenvir[17] is HOSTTYPE=x86_64-linux
myenvir[18] is KDEDIR=/usr
myenvir[19] is GAUSS_SCR=/home/scratch
myenvir[20] is PGI=/usr/pgi
myenvir[21] is MAIL=/var/spool/mail/xsli
myenvir[22] is PATH=/usr/oompi-1.0.4/bin:/usr/mpi/bin:/usr/mpi/lib:/usr/mpi/include:/usr/lib:/usr/include:/usr/pgi/linux86-64/6.1/bin:/usr/local:/usr/oompi-1.0.4/bin:/usr/mpi/bin:/usr/mpi/lib:/usr/mpi/include:/usr/lib:/usr/include:/usr/pgi/linux86-64/6.1/bin:/usr/local:/usr/kerberos/bin:/usr/local/bin:/bin:/usr/bin:/home/gauss/gdv/bsd:/home/gauss/gdv/local:/home/gauss/gdv/extras:/home/gauss/gdv:/home/gauss/gdv/bsd:/home/gauss/gdv/local:/home/gauss/gdv/extras:/home/gauss/gdv:/usr/X11R6/bin
myenvir[23] is INPUTRC=/etc/inputrc
myenvir[24] is PWD=/home/xsli/TestCode
myenvir[25] is LANG=en_US.UTF-8
myenvir[26] is GAUSS_EXEDIR=/home/gauss/gdv/bsd:/home/gauss/gdv/local:/home/gauss/gdv/extras:/home/gauss/gdv
myenvir[27] is PERLLIB=/home/gauss/gdv/bsd:/home/gauss/gdv/bsd
myenvir[28] is PGIDIR=/usr/pgi/linux86-64/6.1
myenvir[29] is LM_LICENSE_FILE=/usr/pgi/license.dat
myenvir[30] is LINDA_FORTRAN=pgf77 -i8 -mcmodel=medium
myenvir[31] is SSH_ASKPASS=/usr/libexec/openssh/gnome-ssh-askpass
myenvir[32] is _RLD_ARGS=-log /dev/null
myenvir[33] is SHLVL=2
myenvir[34] is HOME=/home/xsli
myenvir[35] is OSTYPE=linux
myenvir[36] is POSTFL_FORTRAN=pgf77 -i8 -mcmodel=medium
myenvir[37] is VENDOR=unknown
myenvir[38] is GV_DIR=/home/gauss/gv
myenvir[39] is MACHTYPE=x86_64
myenvir[40] is LOGNAME=xsli
myenvir[41] is SSH_CONNECTION=::ffff:192.168.0.110 3956 ::ffff:192.168.0.111 22
myenvir[42] is LESSOPEN=|/usr/bin/lesspipe.sh %s
myenvir[43] is DISPLAY=localhost:12.0
myenvir[44] is GDVBASIS=/home/gauss/gdv/basis
myenvir[45] is G_BROKEN_FILENAMES=1
myenvir[46] is GAUSS_LEXEDIR=/home/gauss/gdv/linda-exe
myenvir[47] is _=/home/gauss/gdv/l1.exe
myenvir[48] is MPC_GANG=OFF
myenvir[49] is GAUSS_NPROC=1
myenvir[50] is OMP_NUM_THREADS=1
myenvir[51] is NCPUS=1
myenvir[52] is GAUSS_NPROCL=1
 Contents of /IOp/:
        123456            0            0            0            0
             3            0            2            0            0
             9            0            0            0            0
             1            0            0            0            0
             0            0            0           10            1
             0            0            0            0            1
             0            0            5            0            0
             0            0            0            0            0
             0            0            0            0            0
             0            0       100000            0            0
             0            0            0            0            0
             0            0            0            0            0
             0            0            0            0            0
             0            0            0            0            0
             0            0            0            0            0
             0            0            0            0            0
             0            0            0            0            0
             0            0            0            0            0
             0            0            0            0            0
             0            0            0            0            0
             0            0            0            0            0
             0            0            0            0            0
             0            0            0            0            0
             0            0            0            0            0
             0            0            0            0            0
             0            0            0            0            0
             0            0            0            0            0
             0            0            0            0            0
             0            0            0            0            0
             0            0            0            0            0
             0            0            0            0            0
             0            0            0            0            0
             0            0            0            0            0
             0            0            0            0            0
             0            0            0            0            0
             0            0            0            0            0
             0            0            0            0            0
             0            0            0            0            0
             0            0            0            0            0
             0            0            0            0            0
 Contents of /Info/:
       10      10       0       0       0     101       1       1       2
 HF\STO-3G\                                                                      
                                                                                 
                                                                                 
                                                                                 
                                                                                 
                                                                                 
                                                                                 
                                                                                 
                                                                                 
                                                                                 
                                                                                 
                                                                                 
                                                                                 
                                                                                 
                                                                                 
                                                                                 
                                                                                 
                                                                                 
                                                                                 
         
 (Enter /home/gauss/gdv/l303.exe)
 Top of link  303.    Mon May 15 14:56:47 2006        0.00 cpu seconds.
 DipDrv:  MaxL=1.
 DipPsm:  J= 1 NJ= 4 MaxL=1 MMat= 4 MaxMat= 4.
 Entering OneElI...
 OneElI was handed     6291395 working-precision words.
 Multipole integrals L=0 to 1 MinM= 0 MaxM= 3.
 Requested accuracy = 0.1000D-12
 Multipole Integrals                    
 The Identity operator will be used
 PrsmSu:  NPrtUS=   1 ThrOK=F
 Top of Prism.        Mon May 15 14:56:47 2006        0.01 cpu seconds.
 PRISM was handed     6290262 working-precision words and     3 shell-pairs
 PRISM will use Minimum- Mop paths
 [0] accuracy = 0.10D-12   Chebyshev Delta = 0.12D-02   Critical T = 28.20


           Zone         Bra Derivative Range     Ket Derivative Range
           ==========================================================
             1                 0 to 0                   0 to 0
           ==========================================================

                             -------------------
                             The (ss|ss) Classes
 Not enough memory for any path:
 MxKBra=    9 MxKKet=    1 Memory=     6289965.
                             -------------------

       Available PRISM Paths: 29

    No. of target [m0|n0]   =     4
    No. of locations needed =     4

       T1    T2    T3    T4    T5    T6    T7    T8    T9   T10   T11   T12
        7 99999 99999 99999     0     0     0     0     0     0     0     0
   C1   C2   C3   C4   C5   C6   C7   C8   C9  C10  C11  C12  C13  C14  C15  C16
9999999999999999999999999999999999999999    4    4    4    4    4    4    4    4
    0    0    0    0    0    0    0    0    4    4    4    4    4    4    4    4

                   VR1     cost =      15
                   Bra-TRn cost =      12
                   Ket-TRn cost =       0

                   Space needed for drivers          =     387
                   Space needed for driver formation =     487

                   KBra   KKet   Path     Mops    Wds/S4    MaxCom 

                   C37 =       0
                   C38 =       0
 Prsmar:                       9      1     29       179       309        36       196       848

                             -------------------
                             The (Ps|ss) Classes
 Not enough memory for any path:
 MxKBra=    9 MxKKet=    1 Memory=     6289368.
                             -------------------

       Available PRISM Paths: 29

    No. of target [m0|n0]   =    10
    No. of locations needed =    11

       T1    T2    T3    T4    T5    T6    T7    T8    T9   T10   T11   T12
       39 99999 99999 99999     0     0     0     0     0     0     0     0
   C1   C2   C3   C4   C5   C6   C7   C8   C9  C10  C11  C12  C13  C14  C15  C16
9999999999999999999999999999999999999999   20   16   16   20   20   16   16   20
    0    0    0    0    0    0    0    0   16   16   16   16   16   16   16   16

                   VR1     cost =      67
                   Bra-TRn cost =      48
                   Ket-TRn cost =       0

                   Space needed for drivers          =    1165
                   Space needed for driver formation =    1513

                   KBra   KKet   Path     Mops    Wds/S4    MaxCom 

                   C37 =       0
                   C38 =       0
 Prsmar:                       9      1     29       791       462        99       214       567

                             -------------------
                             The (PP|ss) Classes
 Not enough memory for any path:
 MxKBra=    9 MxKKet=    1 Memory=     6287143.
                             -------------------

       Available PRISM Paths: 29

    No. of target [m0|n0]   =    20
    No. of locations needed =    21

       T1    T2    T3    T4    T5    T6    T7    T8    T9   T10   T11   T12
       96 99999 99999 99999     0     0     0     0     0     0     0     0
   C1   C2   C3   C4   C5   C6   C7   C8   C9  C10  C11  C12  C13  C14  C15  C16
9999999999999999999999999999999999999999   92   64   64   92   92   64   64   92
    0    0    0    0    0    0    0    0   64   64   64   64   64   64   64   64

                   VR1     cost =     174
                   Bra-TRn cost =     348
                   Ket-TRn cost =       0

                   Space needed for drivers          =    3878
                   Space needed for driver formation =    6164

                   KBra   KKet   Path     Mops    Wds/S4    MaxCom 

                   C37 =       0
                   C38 =       0
 Prsmar:                       9      1     29      2457       749       189       267       349
 IPart=  0 NShTot=           3 NBatch=           3 AvBLen=         1.0
 End of Prism.        Mon May 15 14:56:47 2006        0.00 cpu seconds.
 Multipole matrices IBuc=  518 IX=    1 IJ=           1:
                1             2             3             4             5 
      1  0.000000D+00
      2  0.000000D+00  0.000000D+00
      3  0.718555D-01  0.838744D+00  0.000000D+00
      4  0.000000D+00  0.000000D+00  0.000000D+00  0.000000D+00
      5  0.000000D+00  0.000000D+00  0.000000D+00  0.000000D+00  0.000000D+00
 Multipole matrices IBuc=  518 IX=    2 IJ=           1:
                1             2             3             4             5 
      1  0.188973D+00
      2  0.469337D-01  0.188973D+00
      3  0.000000D+00  0.000000D+00  0.188973D+00
      4  0.718555D-01  0.838744D+00  0.000000D+00  0.188973D+00
      5  0.000000D+00  0.000000D+00  0.000000D+00  0.000000D+00  0.188973D+00
 Multipole matrices IBuc=  518 IX=    3 IJ=           1:
                1             2             3             4             5 
      1  0.000000D+00
      2  0.000000D+00  0.000000D+00
      3  0.000000D+00  0.000000D+00  0.000000D+00
      4  0.000000D+00  0.000000D+00  0.000000D+00  0.000000D+00
      5  0.718555D-01  0.838744D+00  0.000000D+00  0.000000D+00  0.000000D+00
 ReDoC1: IPurDI=1 IPurFI=1 IPurDO=1 IPurFO=0.
 MO coefficients before ReDoC1: 
                 1 
      1   0.614289D+01
      2   0.215555D+00
      3   0.000000D+00
      4   0.000000D+00
      5   0.000000D+00
 MO coefficients after ReDoC1: 
                 1 
      1   0.614289D+01
      2   0.215555D+00
      3   0.000000D+00
      4   0.000000D+00
      5   0.000000D+00
 Fermi contact integrals: 
                 1 
      1   0.614289D+01
      2   0.215555D+00
      3   0.000000D+00
      4   0.000000D+00
      5   0.000000D+00
 Leave Link  303 at Mon May 15 14:56:47 2006, MaxMem=    6291456 cpu:       0.0
 ChainX:  /Info/:
       10      10       0       0       0     101       1       1       2
 HF\STO-3G\                                                                      
                                                                                 
                                                                                 
                                                                                 
                                                                                 
                                                                                 
                                                                                 
                                                                                 
                                                                                 
                                                                                 
                                                                                 
                                                                                 
                                                                                 
                                                                                 
                                                                                 
                                                                                 
                                                                                 
                                                                                 
                                                                                 
         
 (Enter /home/gauss/gdv/l401.exe)
 Initial guess wavefunction:
 Transformation matrix: 
                 1             2             3             4             5 
      1   0.632870D+00  0.000000D+00  0.000000D+00  0.000000D+00  0.815607D+00
      2   0.632870D+00  0.000000D+00  0.000000D+00  0.000000D+00 -0.815607D+00
      3   0.000000D+00  0.000000D+00  0.100000D+01  0.000000D+00  0.000000D+00
      4   0.000000D+00  0.000000D+00  0.000000D+00  0.100000D+01  0.000000D+00
      5   0.000000D+00  0.100000D+01  0.000000D+00  0.000000D+00  0.000000D+00
 MatBCor:  using     1 atoms, HaveAt:  T
 A in MatCor: 
                 1 
      1   0.000000D+00
      2   0.188973D+00
      3   0.000000D+00
 B in MatCor: 
                 1 
      1   0.000000D+00
      2   0.188973D+00
      3   0.000000D+00
 MatCor:  Iter=   1 E=0.000D+00 TrRot:
     0.000000    0.000000    0.000000    0.000000    0.000000    0.000000
 dE= 0.000D+00 0.000D+00 0.000D+00 0.000D+00 0.000D+00 0.000D+00
 BR: 
                 1 
      1   0.000000D+00
      2   0.188973D+00
      3   0.000000D+00
 d2E: 
                 1             2             3             4             5 
      1   0.200000D+01  0.000000D+00  0.000000D+00 -0.377945D+00  0.000000D+00
      2   0.000000D+00  0.200000D+01  0.000000D+00  0.000000D+00  0.000000D+00
      3   0.000000D+00  0.000000D+00  0.200000D+01  0.000000D+00  0.000000D+00
      4  -0.377945D+00  0.000000D+00  0.000000D+00  0.714213D-01  0.000000D+00
      5   0.000000D+00  0.000000D+00  0.000000D+00  0.000000D+00  0.000000D+00
      6  -0.377945D+00  0.000000D+00  0.000000D+00  0.714213D-01  0.000000D+00
                 6 
      1  -0.377945D+00
      2   0.000000D+00
      3   0.000000D+00
      4   0.714213D-01
      5   0.000000D+00
      6   0.714213D-01
 TrRot=  0.000000  0.000000  0.000000  0.000000  0.000000  0.000000
 BR in MatCor: 
                 1 
      1   0.000000D+00
      2   0.188973D+00
      3   0.000000D+00
 Done in ChkRd  MB, NB, IProj, JPrj     5    5    1    2
 Initial guess read from the checkpoint file:
 5.chk
 Guess basis will be translated and rotated to current coordinates.
 Entering OneElI...
 OneElI was handed     6291062 working-precision words.
 Overlap between basis sets.
 Requested accuracy = 0.1000D-12
 Basis-basis overlap integrals          
 The Identity operator will be used
 PrsmSu:  NPrtUS=   1 ThrOK=F
 PRISM was handed     6289715 working-precision words and     4 shell-pairs
 PRISM will use Minimum- Mop paths
 [0] accuracy = 0.10D-12   Chebyshev Delta = 0.12D-02   Critical T = 28.20


           Zone         Bra Derivative Range     Ket Derivative Range
           ==========================================================
             1                 0 to 0                   0 to 0
           ==========================================================

                             -------------------
                             The (ss|ss) Classes
 Not enough memory for any path:
 MxKBra=    9 MxKKet=    1 Memory=     6289635.
                             -------------------

       Available PRISM Paths:  4  5 14 29

    No. of target [m0|n0]   =     1
    No. of locations needed =     1

       T1    T2    T3    T4    T5    T6    T7    T8    T9   T10   T11   T12
        0 99999 99999 99999     0     0     0     0     0     0     0     0
   C1   C2   C3   C4   C5   C6   C7   C8   C9  C10  C11  C12  C13  C14  C15  C16
99999999999999999999    1    1    1    1    1    1    1    1    1    1    1    1
    0    0    0    0    1    1    1    1    1    1    1    1    1    1    1    1

                   VR1     cost =       0
                   Bra-TRn cost =       0
                   Ket-TRn cost =       0

                   Space needed for drivers          =     150
                   Space needed for driver formation =     151

                   KBra   KKet   Path     Mops    Wds/S4    MaxCom 

                   C37 =       4
                   C38 =       4
 Prsmar:                       9      1      4         8       103         9        67      2545

                             -------------------
                             The (Ps|ss) Classes
 Not enough memory for any path:
 MxKBra=    9 MxKKet=    1 Memory=     6289358.
                             -------------------

       Available PRISM Paths:  4  5 14 29

    No. of target [m0|n0]   =     4
    No. of locations needed =     4

       T1    T2    T3    T4    T5    T6    T7    T8    T9   T10   T11   T12
        7 99999 99999 99999    12    12    12    12     0     0     0     0
   C1   C2   C3   C4   C5   C6   C7   C8   C9  C10  C11  C12  C13  C14  C15  C16
99999999999999999999    7    4    5    7    5    4    4    5    5    4    4    5
    0    0    0    0    5    4    5    5    4    4    4    4    4    4    4    4

                   VR1     cost =      15
                   Bra-TRn cost =       0
                   Ket-TRn cost =       0

                   Space needed for drivers          =     584
                   Space needed for driver formation =     585

                   KBra   KKet   Path     Mops    Wds/S4    MaxCom 

                   C37 =      16
                   C38 =      20
 Prsmar:                       9      1      4       133       152        36        89      1724

                             -------------------
                             The (PP|ss) Classes
 Not enough memory for any path:
 MxKBra=    9 MxKKet=    1 Memory=     6288070.
                             -------------------

       Available PRISM Paths:  4  5 14 29

    No. of target [m0|n0]   =    10
    No. of locations needed =    11

       T1    T2    T3    T4    T5    T6    T7    T8    T9   T10   T11   T12
       39 99999 99999 99999   102   111   102   111     0     0     0     0
   C1   C2   C3   C4   C5   C6   C7   C8   C9  C10  C11  C12  C13  C14  C15  C16
99999999999999999999   40   10   23   40   23   16   16   23   23   16   16   23
    0    0    0    0   23   10   23   23   16   16   16   16   16   16   16   16

                   VR1     cost =      67
                   Bra-TRn cost =      48
                   Ket-TRn cost =       0

                   Space needed for drivers          =    2501
                   Space needed for driver formation =    2502

                   KBra   KKet   Path     Mops    Wds/S4    MaxCom 

                   C37 =      40
                   C38 =      92
 Prsmar:                       9      1      4       799       287        90       170       913
 IPart=  0 NShTot=           4 NBatch=           3 AvBLen=         1.3
 CnvPC2: ToCart=F DoDens=F IPureD=1 IPureF=0.
 Overlap between basis sets: 
                 1             2             3             4             5 
      1   0.100000D+01  0.248362D+00  0.000000D+00  0.000000D+00  0.000000D+00
      2   0.248362D+00  0.100000D+01  0.000000D+00  0.000000D+00  0.000000D+00
      3   0.000000D+00  0.000000D+00  0.100000D+01  0.000000D+00  0.000000D+00
      4   0.000000D+00  0.000000D+00  0.000000D+00  0.100000D+01  0.000000D+00
      5   0.000000D+00  0.000000D+00  0.000000D+00  0.000000D+00  0.100000D+01
 Projection matrix: 
                 1             2             3             4             5 
      1   0.790051D+00  0.790051D+00  0.000000D+00  0.000000D+00  0.000000D+00
      2   0.000000D+00  0.000000D+00  0.000000D+00  0.000000D+00  0.100000D+01
      3   0.000000D+00  0.000000D+00  0.100000D+01  0.000000D+00  0.000000D+00
      4   0.000000D+00  0.000000D+00  0.000000D+00  0.100000D+01  0.000000D+00
      5   0.613041D+00 -0.613041D+00  0.000000D+00  0.000000D+00  0.000000D+00
 ReDoC1: IPurDI=1 IPurFI=0 IPurDO=1 IPurFO=1.
 MO coefficients before ReDoC1: 
                 1             2             3             4             5 
      1   0.994141D+00 -0.278250D+00  0.000000D+00  0.000000D+00  0.000000D+00
      2   0.226241D-01  0.103210D+01  0.000000D+00  0.000000D+00  0.000000D+00
      3   0.000000D+00  0.000000D+00  0.000000D+00  0.000000D+00  0.100000D+01
      4   0.000000D+00  0.000000D+00  0.100000D+01  0.000000D+00  0.000000D+00
      5   0.000000D+00  0.000000D+00  0.000000D+00  0.100000D+01  0.000000D+00
 MO coefficients after ReDoC1: 
                 1             2             3             4             5 
      1   0.994141D+00 -0.278250D+00  0.000000D+00  0.000000D+00  0.000000D+00
      2   0.226241D-01  0.103210D+01  0.000000D+00  0.000000D+00  0.000000D+00
      3   0.000000D+00  0.000000D+00  0.000000D+00  0.000000D+00  0.100000D+01
      4   0.000000D+00  0.000000D+00  0.100000D+01  0.000000D+00  0.000000D+00
      5   0.000000D+00  0.000000D+00  0.000000D+00  0.100000D+01  0.000000D+00
 MO coefficients before AdjMO2: 
                 1             2             3             4             5 
      1   0.994141D+00 -0.278250D+00  0.000000D+00  0.000000D+00  0.000000D+00
      2   0.226241D-01  0.103210D+01  0.000000D+00  0.000000D+00  0.000000D+00
      3   0.000000D+00  0.000000D+00  0.000000D+00  0.000000D+00  0.100000D+01
      4   0.000000D+00  0.000000D+00  0.100000D+01  0.000000D+00  0.000000D+00
      5   0.000000D+00  0.000000D+00  0.000000D+00  0.100000D+01  0.000000D+00
 MO coefficients after AdjMO2: 
                 1             2             3             4             5 
      1   0.994141D+00 -0.278250D+00  0.000000D+00  0.000000D+00  0.000000D+00
      2   0.226241D-01  0.103210D+01  0.000000D+00  0.000000D+00  0.000000D+00
      3   0.000000D+00  0.000000D+00  0.000000D+00  0.000000D+00  0.100000D+01
      4   0.000000D+00  0.000000D+00  0.100000D+01  0.000000D+00  0.000000D+00
      5   0.000000D+00  0.000000D+00  0.000000D+00  0.100000D+01  0.000000D+00
 MO coefficients before AdjMO2: 
                 1             2             3             4             5 
      1   0.994141D+00 -0.278250D+00  0.000000D+00  0.000000D+00  0.000000D+00
      2   0.226241D-01  0.103210D+01  0.000000D+00  0.000000D+00  0.000000D+00
      3   0.000000D+00  0.000000D+00  0.000000D+00  0.000000D+00  0.100000D+01
      4   0.000000D+00  0.000000D+00  0.100000D+01  0.000000D+00  0.000000D+00
      5   0.000000D+00  0.000000D+00  0.000000D+00  0.100000D+01  0.000000D+00
 MO coefficients after AdjMO2: 
                 1             2             3             4             5 
      1   0.994141D+00 -0.278250D+00  0.000000D+00  0.000000D+00  0.000000D+00
      2   0.226241D-01  0.103210D+01  0.000000D+00  0.000000D+00  0.000000D+00
      3   0.000000D+00  0.000000D+00  0.000000D+00  0.000000D+00  0.100000D+01
      4   0.000000D+00  0.000000D+00  0.100000D+01  0.000000D+00  0.000000D+00
      5   0.000000D+00  0.000000D+00  0.000000D+00  0.100000D+01  0.000000D+00
 ReDoC1: IPurDI=1 IPurFI=1 IPurDO=1 IPurFO=0.
 MO coefficients before ReDoC1: 
                 1             2             3             4             5 
      1   0.994141D+00 -0.278250D+00  0.000000D+00  0.000000D+00  0.000000D+00
      2   0.226241D-01  0.103210D+01  0.000000D+00  0.000000D+00  0.000000D+00
      3   0.000000D+00  0.000000D+00  0.000000D+00  0.000000D+00  0.100000D+01
      4   0.000000D+00  0.000000D+00  0.100000D+01  0.000000D+00  0.000000D+00
      5   0.000000D+00  0.000000D+00  0.000000D+00  0.100000D+01  0.000000D+00
 MO coefficients after ReDoC1: 
                 1             2             3             4             5 
      1   0.994141D+00 -0.278250D+00  0.000000D+00  0.000000D+00  0.000000D+00
      2   0.226241D-01  0.103210D+01  0.000000D+00  0.000000D+00  0.000000D+00
      3   0.000000D+00  0.000000D+00  0.000000D+00  0.000000D+00  0.100000D+01
      4   0.000000D+00  0.000000D+00  0.100000D+01  0.000000D+00  0.000000D+00
      5   0.000000D+00  0.000000D+00  0.000000D+00  0.100000D+01  0.000000D+00
 ReDoC1: IPurDI=1 IPurFI=0 IPurDO=1 IPurFO=0.
 MO coefficients before ReDoC1: 
                 1             2             3             4             5 
      1   0.994141D+00 -0.278250D+00  0.000000D+00  0.000000D+00  0.000000D+00
      2   0.226241D-01  0.103210D+01  0.000000D+00  0.000000D+00  0.000000D+00
      3   0.000000D+00  0.000000D+00  0.000000D+00  0.000000D+00  0.100000D+01
      4   0.000000D+00  0.000000D+00  0.100000D+01  0.000000D+00  0.000000D+00
      5   0.000000D+00  0.000000D+00  0.000000D+00  0.100000D+01  0.000000D+00
 MO coefficients after ReDoC1: 
                 1             2             3             4             5 
      1   0.994141D+00 -0.278250D+00  0.000000D+00  0.000000D+00  0.000000D+00
      2   0.226241D-01  0.103210D+01  0.000000D+00  0.000000D+00  0.000000D+00
      3   0.000000D+00  0.000000D+00  0.000000D+00  0.000000D+00  0.100000D+01
      4   0.000000D+00  0.000000D+00  0.100000D+01  0.000000D+00  0.000000D+00
      5   0.000000D+00  0.000000D+00  0.000000D+00  0.100000D+01  0.000000D+00
 Projec:  IPass=1 IndI=    0 IndO=    0 NKeep=    1.
 MOs before projection: 
                 1 
      1   0.994141D+00
      2   0.226241D-01
      3   0.000000D+00
      4   0.000000D+00
      5   0.000000D+00
 BtB during projection: 
                 1 
      1   0.100000D+01
 MOs after Q**-1: 
                 1 
      1   0.803297D+00
      2   0.000000D+00
      3   0.000000D+00
      4   0.000000D+00
      5   0.595579D+00
 Projec:  IPass=2 IndI=    1 IndO=    1 NKeep=    2.
 MOs before projection: 
                 1             2 
      1  -0.278250D+00  0.000000D+00
      2   0.103210D+01  0.000000D+00
      3   0.000000D+00  0.000000D+00
      4   0.000000D+00  0.100000D+01
      5   0.000000D+00  0.000000D+00
 BtB during projection: 
                 1             2 
      1   0.100000D+01  0.000000D+00
      2   0.000000D+00  0.100000D+01
 MOs after Q**-1: 
                 1             2 
      1   0.595579D+00  0.000000D+00
      2   0.000000D+00  0.000000D+00
      3   0.000000D+00  0.000000D+00
      4   0.000000D+00  0.100000D+01
      5  -0.803297D+00  0.000000D+00
 Projec:  IPass=3 IndI=    3 IndO=    3 NKeep=    2.
 MOs before projection: 
                 1             2 
      1   0.000000D+00  0.000000D+00
      2   0.000000D+00  0.000000D+00
      3   0.000000D+00  0.100000D+01
      4   0.000000D+00  0.000000D+00
      5   0.100000D+01  0.000000D+00
 BtB during projection: 
                 1             2 
      1   0.100000D+01  0.000000D+00
      2   0.000000D+00  0.100000D+01
 MOs after Q**-1: 
                 1             2 
      1   0.000000D+00  0.000000D+00
      2   0.100000D+01  0.000000D+00
      3   0.000000D+00  0.100000D+01
      4   0.000000D+00  0.000000D+00
      5   0.000000D+00  0.000000D+00
 MOs after completion: 
                 1             2             3             4             5 
      1   0.803297D+00  0.595579D+00  0.000000D+00  0.000000D+00  0.000000D+00
      2   0.000000D+00  0.000000D+00  0.000000D+00  0.100000D+01  0.000000D+00
      3   0.000000D+00  0.000000D+00  0.000000D+00  0.000000D+00  0.100000D+01
      4   0.000000D+00  0.000000D+00  0.100000D+01  0.000000D+00  0.000000D+00
      5   0.595579D+00 -0.803297D+00  0.000000D+00  0.000000D+00  0.000000D+00
 MOs after back trans: 
                 1             2             3             4             5 
      1   0.994141D+00 -0.278250D+00  0.000000D+00  0.000000D+00  0.000000D+00
      2   0.226241D-01  0.103210D+01  0.000000D+00  0.000000D+00  0.000000D+00
      3   0.000000D+00  0.000000D+00  0.000000D+00  0.000000D+00  0.100000D+01
      4   0.000000D+00  0.000000D+00  0.100000D+01  0.000000D+00  0.000000D+00
      5   0.000000D+00  0.000000D+00  0.000000D+00  0.100000D+01  0.000000D+00
 Real Alpha MO Coefficients: 
                 1             2             3             4             5 
      1   0.994141D+00 -0.278250D+00  0.000000D+00  0.000000D+00  0.000000D+00
      2   0.226241D-01  0.103210D+01  0.000000D+00  0.000000D+00  0.000000D+00
      3   0.000000D+00  0.000000D+00  0.000000D+00  0.000000D+00  0.100000D+01
      4   0.000000D+00  0.000000D+00  0.100000D+01  0.000000D+00  0.000000D+00
      5   0.000000D+00  0.000000D+00  0.000000D+00  0.100000D+01  0.000000D+00
 Alpha deviation from unit magnitude is 2.22D-16 for orbital    3.
 Alpha deviation from orthogonality  is 5.55D-17 for orbitals   2   1.
 C(Dagger)*S*C (alpha): 
                 1             2             3             4             5 
      1   0.100000D+01  0.000000D+00  0.000000D+00  0.000000D+00  0.000000D+00
      2   0.000000D+00  0.100000D+01  0.000000D+00  0.000000D+00  0.000000D+00
      3   0.000000D+00  0.000000D+00  0.100000D+01  0.000000D+00  0.000000D+00
      4   0.000000D+00  0.000000D+00  0.000000D+00  0.100000D+01  0.000000D+00
      5   0.000000D+00  0.000000D+00  0.000000D+00  0.000000D+00  0.100000D+01
 Leave Link  401 at Mon May 15 14:56:47 2006, MaxMem=    6291456 cpu:       0.0
 (Enter ./l502.exe)
 xsli PP   13.36663748179841     
 A Direct SCF calculation will be performed.
 GetPCM: File not found, return IValue=0.
 Pruned (  75, 302) grid will be used in CalDFT.
 Closed shell SCF:
 Requested convergence on RMS density matrix=1.00D-08 within 128 cycles.
 Requested convergence on MAX density matrix=1.00D-06.
 Requested convergence on             energy=1.00D-06.
 No special actions if energy rises.
 Using DIIS extrapolation, IDIIS=  1040.
 Two-electron integral symmetry not used.
 ReadGW:  IGet=1 IStart=        1778 Next=        1778 LGW=           0.
 NBasis=        5 NAllTT=      231 NAllSq=      441 NWIIB=         0
 INEq=         11 LenNEq=        0 IIJ=         398 ID=          693
 IDD=        1134 IDA=         693 IDB=         924 IF=         1162
 IFF=        1603 IFA=        1162 IFB=        1393 IScr2=      1624
 IV=         1778 IBuf2E=     1778 IMin1=     18880 IMin=      18880
 IEnd=      18880 IOpCl=         0
 Keep R1 integrals in memory in canonical form, NReq=      819014.
 IEnd=     18880 IEndB=     18880 NGot=   6291456 MDV=   6289545
 LenX=   6289545
 Enter FofDir, NBasis=   5 IHMeth= 1.
 Symmetry not used in FoFDir.
 MinBra= 0 MaxBra= 1 Meth= 1.
 IRaf=       0 NMat=   1 IRICut=       1 DoRegI=T DoRafI=F ISym2E= 0 JSym2E=0.
  NShlT=       2 NTypes=       2  LenT1=       4  LenC1=       4
  LenT2=       4  LenN2=      86  LenC2=       4 LenP2D=      27
 LenP2C=      63
 IType=       1 ShlT= 0 ShlC= 0 T1C1St=       1
   ISh=       1 C1NPrm=   3 C1ESt=       1 C1CSt=       1
     C1SMap=       1 C1AOS=       1 C1Cent=     1
     CentXYZ=      0.000000      0.188973      0.000000
     IPrm=       1 P1Exp= 7.16D+01 P1CMax= 2.71D+00
     IPrm=       2 P1Exp= 1.30D+01 P1CMax= 2.62D+00
     IPrm=       3 P1Exp= 3.53D+00 P1CMax= 8.16D-01
 IType=       2 ShlT= 1 ShlC= 0 T1C1St=       2
   ISh=       2 C1NPrm=   3 C1ESt=       4 C1CSt=       4
     C1SMap=       2 C1AOS=       2 C1Cent=     2
     CentXYZ=      0.000000      0.188973      0.000000
     IPrm=       4 P1Exp= 2.94D+00 P1CMax= 8.56D-01
     IPrm=       5 P1Exp= 6.83D-01 P1CMax= 5.38D-01
     IPrm=       6 P1Exp= 2.22D-01 P1CMax= 1.62D-01
 IJTC=   1 IType= 1 JType= 1 T2N2St=     1
   IJTN=   1 NPrm=     9     0 C2St=     1 PDSt=     1 PCSt=     1
   IJTN=   2 NPrm=     9     0 C2St=     1 PDSt=     1 PCSt=     1
    IJShl=     1 C2ShlIJ=     1     1 C2CelJ=     1 C2LocIJ=   1   1 C2FPrm=     9 C2KMax= 0.16D+01 0.16D+01
       C2CDif=      0.000000      0.000000      0.000000
       IJP=       1 A= 0.143234D+03 B= 0.143234D+03 U= 0.238174D-01
                    C= 0.100000D+01
         P2P=   0.000000D+00 0.188973D+00 0.000000D+00
         P2PMA= 0.000000D+00 0.000000D+00 0.000000D+00
         P2PMB= 0.000000D+00 0.000000D+00 0.000000D+00
       IJP=       2 A= 0.143234D+03 B= 0.260902D+02 U= 0.506906D-01
                    C= 0.100000D+01
         P2P=   0.000000D+00 0.188973D+00 0.000000D+00
         P2PMA= 0.000000D+00 0.000000D+00 0.000000D+00
         P2PMB= 0.000000D+00 0.000000D+00 0.000000D+00
       IJP=       3 A= 0.143234D+03 B= 0.706102D+01 U= 0.188914D-01
                    C= 0.100000D+01
         P2P=   0.000000D+00 0.188973D+00 0.000000D+00
         P2PMA= 0.000000D+00 0.000000D+00 0.000000D+00
         P2PMB= 0.000000D+00 0.000000D+00 0.000000D+00
       IJP=       4 A= 0.260902D+02 B= 0.143234D+03 U= 0.506906D-01
                    C= 0.100000D+01
         P2P=   0.000000D+00 0.188973D+00 0.000000D+00
         P2PMA= 0.000000D+00 0.000000D+00 0.000000D+00
         P2PMB= 0.000000D+00 0.000000D+00 0.000000D+00
       IJP=       5 A= 0.260902D+02 B= 0.260902D+02 U= 0.286576D+00
                    C= 0.100000D+01
         P2P=   0.000000D+00 0.188973D+00 0.000000D+00
         P2PMA= 0.000000D+00 0.000000D+00 0.000000D+00
         P2PMB= 0.000000D+00 0.000000D+00 0.000000D+00
       IJP=       6 A= 0.260902D+02 B= 0.706102D+01 U= 0.176371D+00
                    C= 0.100000D+01
         P2P=   0.000000D+00 0.188973D+00 0.000000D+00
         P2PMA= 0.000000D+00 0.000000D+00 0.000000D+00
         P2PMB= 0.000000D+00 0.000000D+00 0.000000D+00
       IJP=       7 A= 0.706102D+01 B= 0.143234D+03 U= 0.188914D-01
                    C= 0.100000D+01
         P2P=   0.000000D+00 0.188973D+00 0.000000D+00
         P2PMA= 0.000000D+00 0.000000D+00 0.000000D+00
         P2PMB= 0.000000D+00 0.000000D+00 0.000000D+00
       IJP=       8 A= 0.706102D+01 B= 0.260902D+02 U= 0.176371D+00
                    C= 0.100000D+01
         P2P=   0.000000D+00 0.188973D+00 0.000000D+00
         P2PMA= 0.000000D+00 0.000000D+00 0.000000D+00
         P2PMB= 0.000000D+00 0.000000D+00 0.000000D+00
       IJP=       9 A= 0.706102D+01 B= 0.706102D+01 U= 0.197700D+00
                    C= 0.100000D+01
         P2P=   0.000000D+00 0.188973D+00 0.000000D+00
         P2PMA= 0.000000D+00 0.000000D+00 0.000000D+00
         P2PMB= 0.000000D+00 0.000000D+00 0.000000D+00
 IJTC=   2 IType= 2 JType= 1 T2N2St=     3
   IJTN=   3 NPrm=     9     0 C2St=     2 PDSt=    10 PCSt=    10
   IJTN=   4 NPrm=     9     0 C2St=     2 PDSt=    10 PCSt=    10
    IJShl=     2 C2ShlIJ=     2     1 C2CelJ=     1 C2LocIJ=   1   1 C2FPrm=     9 C2KMax= 0.17D+01 0.17D+01
       C2CDif=      0.000000      0.000000      0.000000
       IJP=      10 A= 0.588250D+01 B= 0.143234D+03 U= 0.268908D-03
                    C=-0.278737D+02 0.100000D+01
         P2P=   0.000000D+00 0.188973D+00 0.000000D+00
         P2PMA= 0.000000D+00 0.000000D+00 0.000000D+00
         P2PMB= 0.000000D+00 0.000000D+00 0.000000D+00
       IJP=      11 A= 0.588250D+01 B= 0.260902D+02 U= 0.122170D-01
                    C=-0.278737D+02 0.100000D+01
         P2P=   0.000000D+00 0.188973D+00 0.000000D+00
         P2PMA= 0.000000D+00 0.000000D+00 0.000000D+00
         P2PMB= 0.000000D+00 0.000000D+00 0.000000D+00
       IJP=      12 A= 0.588250D+01 B= 0.706102D+01 U= 0.365138D-01
                    C=-0.278737D+02 0.100000D+01
         P2P=   0.000000D+00 0.188973D+00 0.000000D+00
         P2PMA= 0.000000D+00 0.000000D+00 0.000000D+00
         P2PMB= 0.000000D+00 0.000000D+00 0.000000D+00
       IJP=      13 A= 0.136697D+01 B= 0.143234D+03 U= 0.182608D-03
                    C=-0.278737D+02 0.100000D+01
         P2P=   0.000000D+00 0.188973D+00 0.000000D+00
         P2PMA= 0.000000D+00 0.000000D+00 0.000000D+00
         P2PMB= 0.000000D+00 0.000000D+00 0.000000D+00
       IJP=      14 A= 0.136697D+01 B= 0.260902D+02 U= 0.112410D-01
                    C=-0.278737D+02 0.100000D+01
[...]
    Derivative Code = (  1,  1|  1,  1)
    Derivative Code = (  1,  1|  1,  1)
    Derivative Code = (  1,  1|  1,  1)
    Derivative Code = (  1,  1|  1,  1)
    Derivative Code = (  1,  1|  1,  1)
    Derivative Code = (  1,  1|  1,  1)
    Derivative Code = (  1,  1|  1,  1)
    Derivative Code = (  1,  1|  1,  1)
    Derivative Code = (  1,  1|  1,  1)
    Derivative Code = (  1,  1|  1,  1)
    Derivative Code = (  1,  1|  1,  1)
    Derivative Code = (  1,  1|  1,  1)
    Derivative Code = (  1,  1|  1,  1)
    Derivative Code = (  1,  1|  1,  1)
         (  4,  2|  4,  2) =                     0.1379962785
    Derivative Code = (  1,  1|  1,  1)
    Derivative Code = (  1,  1|  1,  1)
    Derivative Code = (  1,  1|  1,  1)
         (  4,  2|  2,  4) =                     0.1379962785
    Derivative Code = (  1,  1|  1,  1)
    Derivative Code = (  1,  1|  1,  1)
    Derivative Code = (  1,  1|  1,  1)
    Derivative Code = (  1,  1|  1,  1)
    Derivative Code = (  1,  1|  1,  1)
    Derivative Code = (  1,  1|  1,  1)
    Derivative Code = (  1,  1|  1,  1)
    Derivative Code = (  1,  1|  1,  1)
    Derivative Code = (  1,  1|  1,  1)
    Derivative Code = (  1,  1|  1,  1)
    Derivative Code = (  1,  1|  1,  1)
    Derivative Code = (  1,  1|  1,  1)
    Derivative Code = (  1,  1|  1,  1)
    Derivative Code = (  1,  1|  1,  1)
         (  3,  2|  3,  2) =                     0.1379962785
    Derivative Code = (  1,  1|  1,  1)
    Derivative Code = (  1,  1|  1,  1)
    Derivative Code = (  1,  1|  1,  1)
         (  3,  2|  2,  3) =                     0.1379962785
    Derivative Code = (  1,  1|  1,  1)
    Derivative Code = (  1,  1|  1,  1)
    Derivative Code = (  1,  1|  1,  1)
    Derivative Code = (  1,  1|  1,  1)
    Derivative Code = (  1,  1|  1,  1)
    Derivative Code = (  1,  1|  1,  1)
    Derivative Code = (  1,  1|  1,  1)
    Derivative Code = (  1,  1|  1,  1)
    Derivative Code = (  1,  1|  1,  1)
    Derivative Code = (  1,  1|  1,  1)
    Derivative Code = (  1,  1|  1,  1)
         (  2,  5|  5,  2) =                     0.1379962785
    Derivative Code = (  1,  1|  1,  1)
    Derivative Code = (  1,  1|  1,  1)
    Derivative Code = (  1,  1|  1,  1)
         (  2,  5|  2,  5) =                     0.1379962785
    Derivative Code = (  1,  1|  1,  1)
    Derivative Code = (  1,  1|  1,  1)
    Derivative Code = (  1,  1|  1,  1)
    Derivative Code = (  1,  1|  1,  1)
    Derivative Code = (  1,  1|  1,  1)
    Derivative Code = (  1,  1|  1,  1)
    Derivative Code = (  1,  1|  1,  1)
    Derivative Code = (  1,  1|  1,  1)
    Derivative Code = (  1,  1|  1,  1)
    Derivative Code = (  1,  1|  1,  1)
    Derivative Code = (  1,  1|  1,  1)
    Derivative Code = (  1,  1|  1,  1)
    Derivative Code = (  1,  1|  1,  1)
    Derivative Code = (  1,  1|  1,  1)
         (  2,  4|  4,  2) =                     0.1379962785
    Derivative Code = (  1,  1|  1,  1)
    Derivative Code = (  1,  1|  1,  1)
    Derivative Code = (  1,  1|  1,  1)
         (  2,  4|  2,  4) =                     0.1379962785
    Derivative Code = (  1,  1|  1,  1)
    Derivative Code = (  1,  1|  1,  1)
    Derivative Code = (  1,  1|  1,  1)
    Derivative Code = (  1,  1|  1,  1)
    Derivative Code = (  1,  1|  1,  1)
    Derivative Code = (  1,  1|  1,  1)
    Derivative Code = (  1,  1|  1,  1)
    Derivative Code = (  1,  1|  1,  1)
    Derivative Code = (  1,  1|  1,  1)
    Derivative Code = (  1,  1|  1,  1)
    Derivative Code = (  1,  1|  1,  1)
    Derivative Code = (  1,  1|  1,  1)
    Derivative Code = (  1,  1|  1,  1)
    Derivative Code = (  1,  1|  1,  1)
         (  2,  3|  3,  2) =                     0.1379962785
    Derivative Code = (  1,  1|  1,  1)
    Derivative Code = (  1,  1|  1,  1)
    Derivative Code = (  1,  1|  1,  1)
         (  2,  3|  2,  3) =                     0.1379962785
    Derivative Code = (  1,  1|  1,  1)
    Derivative Code = (  1,  1|  1,  1)
         (  2,  2|  5,  5) =                     0.6245683807
    Derivative Code = (  1,  1|  1,  1)
    Derivative Code = (  1,  1|  1,  1)
    Derivative Code = (  1,  1|  1,  1)
    Derivative Code = (  1,  1|  1,  1)
         (  2,  2|  4,  4) =                     0.6245683807
    Derivative Code = (  1,  1|  1,  1)
    Derivative Code = (  1,  1|  1,  1)
    Derivative Code = (  1,  1|  1,  1)
    Derivative Code = (  1,  1|  1,  1)
         (  2,  2|  3,  3) =                     0.6245683807
    Derivative Code = (  1,  1|  1,  1)
    Derivative Code = (  1,  1|  1,  1)
    Derivative Code = (  1,  1|  1,  1)
    Derivative Code = (  1,  1|  1,  1)
    Derivative Code = (  1,  1|  1,  1)
    Derivative Code = (  1,  1|  1,  1)
    Derivative Code = (  1,  1|  1,  1)
         (  2,  2|  2,  2) =                     0.6247088128
 IPart=  0 NShTot=           6 NBatch=           6 AvBLen=         1.0
 Raffenetti 1 integrals: 
                1             2             3             4             5 
      1  0.17709740740D+01
      2  0.28846065140D+00 -0.12975435364D+00
      3  0.79873771713D+00  0.10264193572D+00  0.31235440640D+00
      4  0.00000000000D+00  0.00000000000D+00  0.00000000000D+00 -0.19788667192D+00
      5  0.00000000000D+00  0.00000000000D+00  0.00000000000D+00 -0.28190459402D-01 -0.52644886276D-01
      6  0.84228784950D+00  0.18990621056D+00  0.55557024146D+00  0.00000000000D+00  0.00000000000D+00
      7  0.00000000000D+00  0.00000000000D+00  0.00000000000D+00  0.00000000000D+00  0.00000000000D+00
      8  0.00000000000D+00  0.00000000000D+00  0.00000000000D+00  0.00000000000D+00  0.00000000000D+00
      9  0.00000000000D+00  0.00000000000D+00  0.00000000000D+00  0.00000000000D+00  0.00000000000D+00
     10  0.84228784950D+00  0.18990621056D+00  0.55557024146D+00  0.00000000000D+00  0.00000000000D+00
     11  0.00000000000D+00  0.00000000000D+00  0.00000000000D+00  0.00000000000D+00  0.00000000000D+00
     12  0.00000000000D+00  0.00000000000D+00  0.00000000000D+00  0.00000000000D+00  0.00000000000D+00
     13  0.00000000000D+00  0.00000000000D+00  0.00000000000D+00  0.00000000000D+00  0.00000000000D+00
     14  0.00000000000D+00  0.00000000000D+00  0.00000000000D+00  0.00000000000D+00  0.00000000000D+00
     15  0.84228784950D+00  0.18990621056D+00  0.55557024146D+00  0.00000000000D+00  0.00000000000D+00
                6             7             8             9            10 
      6  0.33641636314D+00
      7  0.00000000000D+00 -0.19788667192D+00
      8  0.00000000000D+00 -0.28190459402D-01 -0.52644886276D-01
      9  0.00000000000D+00  0.00000000000D+00  0.00000000000D+00 -0.12287237918D+00
     10  0.58216112149D+00  0.00000000000D+00  0.00000000000D+00  0.00000000000D+00  0.33641636314D+00
     11  0.00000000000D+00  0.00000000000D+00  0.00000000000D+00  0.00000000000D+00  0.00000000000D+00
     12  0.00000000000D+00  0.00000000000D+00  0.00000000000D+00  0.00000000000D+00  0.00000000000D+00
     13  0.00000000000D+00  0.00000000000D+00  0.00000000000D+00  0.00000000000D+00  0.00000000000D+00
     14  0.00000000000D+00  0.00000000000D+00  0.00000000000D+00  0.00000000000D+00  0.00000000000D+00
     15  0.58216112149D+00  0.00000000000D+00  0.00000000000D+00  0.00000000000D+00  0.58216112149D+00
               11            12            13            14            15 
     11 -0.19788667192D+00
     12 -0.28190459402D-01 -0.52644886276D-01
     13  0.00000000000D+00  0.00000000000D+00 -0.12287237918D+00
     14  0.00000000000D+00  0.00000000000D+00  0.00000000000D+00 -0.12287237918D+00
     15  0.00000000000D+00  0.00000000000D+00  0.00000000000D+00  0.00000000000D+00  0.33641636314D+00
 Selected VarAcc= 1.

 Core hamiltonian (alpha):
                1             2             3             4             5 
      1 -0.17761619397D+02
      2 -0.42781188362D+01 -0.47175165850D+01
      3  0.00000000000D+00  0.00000000000D+00 -0.36704926467D+01
      4  0.00000000000D+00  0.00000000000D+00  0.00000000000D+00 -0.36704926467D+01
      5  0.00000000000D+00  0.00000000000D+00  0.00000000000D+00  0.00000000000D+00 -0.36704926467D+01
 Core hamiltonian (beta):
                1             2             3             4             5 
      1 -0.17761619397D+02
      2 -0.42781188362D+01 -0.47175165850D+01
      3  0.00000000000D+00  0.00000000000D+00 -0.36704926467D+01
      4  0.00000000000D+00  0.00000000000D+00  0.00000000000D+00 -0.36704926467D+01
      5  0.00000000000D+00  0.00000000000D+00  0.00000000000D+00  0.00000000000D+00 -0.36704926467D+01
 Alpha density matrix:
                1             2             3             4             5 
      1  0.10657389114D+01
      2 -0.26468947066D+00  0.10657389114D+01
      3  0.00000000000D+00  0.00000000000D+00  0.00000000000D+00
      4 -0.36977854932D-31 -0.38518598888D-32  0.00000000000D+00  0.10000000000D+01
      5  0.00000000000D+00  0.00000000000D+00  0.00000000000D+00  0.00000000000D+00  0.00000000000D+00
 Beta density matrix:
                1             2             3             4             5 
      1  0.10657389114D+01
      2 -0.26468947066D+00  0.10657389114D+01
      3  0.00000000000D+00  0.00000000000D+00  0.00000000000D+00
      4 -0.36977854932D-31 -0.38518598888D-32  0.00000000000D+00  0.10000000000D+01
      5  0.00000000000D+00  0.00000000000D+00  0.00000000000D+00  0.00000000000D+00  0.00000000000D+00
 Cycle   1  Pass 1  IDiag  1:
 One-electron energy=-0.507252730754D+02
 DA number   1 in FoFMem:
                1             2             3             4             5 
      1  0.10657389114D+01
      2 -0.26468947066D+00  0.10657389114D+01
      3  0.00000000000D+00  0.00000000000D+00  0.00000000000D+00
      4 -0.36977854932D-31 -0.38518598888D-32  0.00000000000D+00  0.10000000000D+01
      5  0.00000000000D+00  0.00000000000D+00  0.00000000000D+00  0.00000000000D+00  0.00000000000D+00
 1/2 <PG(P)>=          13.635686454552
 Alpha Fock matrix:
                1             2             3             4             5 
      1 -0.10905169993D+02
      2 -0.29273014795D+01 -0.13467808402D+01
      3  0.00000000000D+00  0.00000000000D+00  0.27226841916D+00
      4  0.29704041388D-31  0.49808137761D-32  0.00000000000D+00 -0.21922109755D+00
      5  0.00000000000D+00  0.00000000000D+00  0.00000000000D+00  0.00000000000D+00  0.27226841916D+00
 Beta Fock matrix:
                1             2             3             4             5 
      1 -0.10905169993D+02
      2 -0.29273014795D+01 -0.13467808402D+01
      3  0.00000000000D+00  0.00000000000D+00  0.27226841916D+00
      4  0.29704041388D-31  0.49808137761D-32  0.00000000000D+00 -0.21922109755D+00
      5  0.00000000000D+00  0.00000000000D+00  0.00000000000D+00  0.00000000000D+00  0.27226841916D+00
 E= -37.0895866208087    
 Alpha error matrix at iteration          1
                1             2             3             4             5 
      1  0.00000000000D+00
      2  0.00000000000D+00  0.00000000000D+00
      3  0.00000000000D+00  0.00000000000D+00  0.00000000000D+00
      4  0.16352877025D-30  0.00000000000D+00  0.00000000000D+00  0.00000000000D+00
      5 -0.22922692937D-15  0.00000000000D+00  0.00000000000D+00 -0.12056055880D-30  0.00000000000D+00
 DIIS: error= 2.29D-16 at cycle   1 NSaved=   1.
 B matrix at iteration          1
                 1             2 
      1   0.000000D+00 -0.100000D+01
      2  -0.100000D+01 -0.210180D-30
 Tr matrix at iteration          1
                 1             2 
      1   0.000000D+00  0.000000D+00
      2   0.000000D+00 -0.117270D+02
 BE matrix at iteration          1
                 1             2 
      1   0.000000D+00 -0.100000D+01
      2  -0.100000D+01  0.000000D+00
 NSaved= 1 IEnMin= 1 EnMin= -37.0895866208087     IErMin= 1 ErrMin= 2.29D-16
 ErrMax= 2.29D-16 EMaxC= 1.00D-01 BMatC= 2.10D-31 BMatP= 2.10D-31
 IDIUse=1 WtCom= 1.00D+00 WtEn= 0.00D+00
 Coeff-Com:  0.100D+01
 Coeff-En:   0.000D+00
 Coeff:      0.100D+01
 NewF-IndFok=    0
 NewF-Coef=   1.00D+00
 Extrapolated FA at iteration          1:
                1             2             3             4             5 
      1 -0.10905169993D+02
      2 -0.29273014795D+01 -0.13467808402D+01
      3  0.00000000000D+00  0.00000000000D+00  0.27226841916D+00
      4  0.29704041388D-31  0.49808137761D-32  0.00000000000D+00 -0.21922109755D+00
      5  0.00000000000D+00  0.00000000000D+00  0.00000000000D+00  0.00000000000D+00  0.27226841916D+00
 IB=1 NBFU=    5 NOccSy=    3
 Eig= -10.91012  -0.59761  -0.21922   0.27227   0.27227
 Gap=     0.491 Goal=   None    Shift=    0.000
 Alpha MO coefficients at cycle   1.
                 1             2             3             4             5 
      1   0.994141D+00 -0.278250D+00  0.000000D+00  0.000000D+00  0.000000D+00
      2   0.226241D-01  0.103210D+01  0.000000D+00  0.000000D+00  0.000000D+00
      3   0.000000D+00  0.000000D+00  0.000000D+00  0.100000D+01  0.000000D+00
      4   0.000000D+00  0.000000D+00  0.100000D+01  0.000000D+00  0.000000D+00
      5   0.000000D+00  0.000000D+00  0.000000D+00  0.000000D+00  0.100000D+01
 Alpha density matrix  at cycle   1.
                1             2             3             4             5 
      1  0.10657389114D+01
      2 -0.26468947066D+00  0.10657389114D+01
      3  0.00000000000D+00  0.00000000000D+00  0.00000000000D+00
      4  0.13087322728D-30 -0.17439397386D-31  0.00000000000D+00  0.10000000000D+01
      5  0.00000000000D+00  0.00000000000D+00  0.00000000000D+00  0.00000000000D+00  0.00000000000D+00
 RMSDP=9.02D-17 MaxDP=4.44D-16              OVMax= 0.00D+00

 SCF Done:  E(RHF) =  -37.0895866208     A.U. after    1 cycles
             Convg  =    0.9019D-16             -V/T =  1.9780
             S**2   =   0.0000
 KE= 3.792455700498D+01 PE=-8.864983008034D+01 EE= 1.363568645455D+01
 Alpha MOs:
                           1         2         3         4         5
     EIGENVALUES --   -10.91012  -0.59761  -0.21922   0.27227   0.27227
         1              0.99414  -0.27825   0.00000   0.00000   0.00000
         2              0.02262   1.03210   0.00000   0.00000   0.00000
         3              0.00000   0.00000   0.00000   1.00000   0.00000
         4              0.00000   0.00000   1.00000   0.00000   0.00000
         5              0.00000   0.00000   0.00000   0.00000   1.00000
 Beta  MOs:
                           1         2         3         4         5
     EIGENVALUES --   -10.91012  -0.59761  -0.21922   0.27227   0.27227
         1              0.99414  -0.27825   0.00000   0.00000   0.00000
         2              0.02262   1.03210   0.00000   0.00000   0.00000
         3              0.00000   0.00000   0.00000   1.00000   0.00000
         4              0.00000   0.00000   1.00000   0.00000   0.00000
         5              0.00000   0.00000   0.00000   0.00000   1.00000
 Alpha density matrix: 
                1             2             3             4             5 
      1  0.10657389114D+01
      2 -0.26468947066D+00  0.10657389114D+01
      3  0.00000000000D+00  0.00000000000D+00  0.00000000000D+00
      4  0.13087322728D-30 -0.17439397386D-31  0.00000000000D+00  0.10000000000D+01
      5  0.00000000000D+00  0.00000000000D+00  0.00000000000D+00  0.00000000000D+00  0.00000000000D+00
 Beta density matrix: 
                1             2             3             4             5 
      1  0.10657389114D+01
      2 -0.26468947066D+00  0.10657389114D+01
      3  0.00000000000D+00  0.00000000000D+00  0.00000000000D+00
      4  0.13087322728D-30 -0.17439397386D-31  0.00000000000D+00  0.10000000000D+01
      5  0.00000000000D+00  0.00000000000D+00  0.00000000000D+00  0.00000000000D+00  0.00000000000D+00
 Total density matrix: 
                1             2             3             4             5 
      1  0.21314778228D+01
      2 -0.52937894132D+00  0.21314778228D+01
      3  0.00000000000D+00  0.00000000000D+00  0.00000000000D+00
      4  0.26174645455D-30 -0.34878794771D-31  0.00000000000D+00  0.20000000000D+01
      5  0.00000000000D+00  0.00000000000D+00  0.00000000000D+00  0.00000000000D+00  0.00000000000D+00
 Spin density matrix: 
                1             2             3             4             5 
      1  0.00000000000D+00
      2  0.00000000000D+00  0.00000000000D+00
      3  0.00000000000D+00  0.00000000000D+00  0.00000000000D+00
      4  0.00000000000D+00  0.00000000000D+00  0.00000000000D+00  0.00000000000D+00
      5  0.00000000000D+00  0.00000000000D+00  0.00000000000D+00  0.00000000000D+00  0.00000000000D+00
 -W: 
                1             2             3             4             5 
      1  0.21657835631D+02
      2  0.14752879672D+00  0.12843411294D+01
      3  0.00000000000D+00  0.00000000000D+00  0.00000000000D+00
      4  0.27395505048D-29  0.35478685754D-31  0.00000000000D+00  0.43844219510D+00
      5  0.00000000000D+00  0.00000000000D+00  0.00000000000D+00  0.00000000000D+00  0.00000000000D+00
 Leave Link  502 at Mon May 15 14:56:48 2006, MaxMem=    6291456 cpu:       0.4
 (Enter /home/gauss/gdv/l601.exe)
 Copying SCF densities to generalized density rwf, ISCF=0 IROHF=0.

 **********************************************************************

            Population analysis using the SCF density.

 **********************************************************************

 Alpha  occ. eigenvalues --  -10.91012  -0.59761  -0.21922
 Alpha virt. eigenvalues --    0.27227   0.27227
          Condensed to atoms (all electrons):
              1
     1  C    6.000000
 Mulliken atomic charges:
              1
     1  C    0.000000
 Sum of Mulliken atomic charges =   0.00000
 Mulliken charges with hydrogens summed into heavy atoms:
              1
     1  C    0.000000
 Sum of Mulliken charges with hydrogens summed into heavy atoms =   0.00000
 Electronic spatial extent (au):  <R**2>=    10.7931
 Charge=     0.0000 electrons
 Dipole moment (field-independent basis, Debye):
    X=     0.0000    Y=     0.0000    Z=     0.0000  Tot=     0.0000
 Quadrupole moment (field-independent basis, Debye-Ang):
   XX=    -3.8312   YY=    -6.5664   ZZ=    -3.8312
   XY=     0.0000   XZ=     0.0000   YZ=     0.0000
 Traceless Quadrupole moment (field-independent basis, Debye-Ang):
   XX=     0.9117   YY=    -1.8235   ZZ=     0.9117
   XY=     0.0000   XZ=     0.0000   YZ=     0.0000
 Octapole moment (field-independent basis, Debye-Ang**2):
  XXX=     0.0000  YYY=    -1.9699  ZZZ=     0.0000  XYY=     0.0000
  XXY=    -0.3831  XXZ=     0.0000  XZZ=     0.0000  YZZ=    -0.3831
  YYZ=     0.0000  XYZ=     0.0000
 Hexadecapole moment (field-independent basis, Debye-Ang**3):
 XXXX=    -2.6489 YYYY=    -6.1722 ZZZZ=    -2.6489 XXXY=     0.0000
 XXXZ=     0.0000 YYYX=     0.0000 YYYZ=     0.0000 ZZZX=     0.0000
 ZZZY=     0.0000 XXYY=    -1.4428 XXZZ=    -0.8830 YYZZ=    -1.4428
 XXYZ=     0.0000 YYXZ=     0.0000 ZZXY=     0.0000
 N-N= 0.000000000000D+00 E-N=-8.864983008034D+01  KE= 3.792455700498D+01
 No NMR shielding tensors so no spin-rotation constants.
 Leave Link  601 at Mon May 15 14:56:48 2006, MaxMem=    6291456 cpu:       0.2
 (Enter /home/gauss/gdv/l9999.exe)

 Test job not archived.
 1\1\GINC-BOHR\SP\RHF\STO-3G\C1\XSLI\15-May-2006\0\\#p hf/sto-3g iop(3/
 1=123456,3/33=5,4/33=5,5/33=10) GFInput nosymm scf=incore 6d scf=tight
  guess=read\\d\\0,1\C,0,0.,0.1,0.\\Version=AM64L-GDVRevD.02\HF=-37.089
 5866\RMSD=9.019e-17\Dipole=0.,0.,0.\Quadrupole=0.6778536,-1.3557072,0.
 6778536,0.,0.,0.\PG=OH [O(C1)]\\@


 KNIGHT- SIRE, I'VE JUST RETURNED FROM THE FRONT
 KING-   HOW GOES THE BATTLE                    
 KNIGHT- THE SITUATION IS QUITE FLUID           
 KING-   WHAT DOES *THAT* MEAN                  
 KNIGHT- WE'RE UP THE CREEK                     
                THE WIZARD OF ID                
 Job cpu time:  0 days  0 hours  0 minutes  2.3 seconds.
 File lengths (MBytes):  RWF=     13 Int=      0 D2E=      0 Chk=     11 Scr=      1
 Normal termination of Gaussian DV at Mon May 15 14:56:48 2006.
