 Entering Gaussian System, Link 0=gdv
 Input=7.com
 Output=7.log
 Initial command:
 /Volumes/Gaussian/gdvh37p/gdv/l1.exe "/Users/xsli/Chronus/Gau-2487.inp" -scrdir="/Users/xsli/Chronus/"
 Entering Link 1 = /Volumes/Gaussian/gdvh37p/gdv/l1.exe PID=      2488.
  
 Copyright (c) 1988,1990,1992,1993,1995,1998,2003,2009,2014,
            Gaussian, Inc.  All Rights Reserved.
  
 This is the private, development version of
 the Gaussian(R) DV system of programs. It is based on
 the Gaussian(R) 09 system (copyright 2009, Gaussian, Inc.),
 the Gaussian(R) 03 system (copyright 2003, Gaussian, Inc.),
 the Gaussian(R) 98 system (copyright 1998, Gaussian, Inc.),
 the Gaussian(R) 94 system (copyright 1995, Gaussian, Inc.),
 the Gaussian 92(TM) system (copyright 1992, Gaussian, Inc.),
 the Gaussian 90(TM) system (copyright 1990, Gaussian, Inc.),
 the Gaussian 88(TM) system (copyright 1988, Gaussian, Inc.),
 the Gaussian 86(TM) system (copyright 1986, Carnegie Mellon
 University), and the Gaussian 82(TM) system (copyright 1983,
 Carnegie Mellon University). Gaussian is a federally registered
 trademark of Gaussian, Inc.
  
 This software contains proprietary and confidential information,
 including trade secrets, belonging to Gaussian, Inc.
  
 This software is provided under written license and may be
 used, copied, transmitted, or stored only in accord with that
 written license.
  
 The following legend is applicable only to US Government
 contracts under FAR:
  
                    RESTRICTED RIGHTS LEGEND
  
 Use, reproduction and disclosure by the US Government is
 subject to restrictions as set forth in subparagraphs (a)
 and (c) of the Commercial Computer Software - Restricted
 Rights clause in FAR 52.227-19.
  
 Gaussian, Inc.
 340 Quinnipiac St., Bldg. 40, Wallingford CT 06492
  
  
 ---------------------------------------------------------------
 Warning -- This program may not be used in any manner that
 competes with the business of Gaussian, Inc. or will provide
 assistance to any competitor of Gaussian, Inc.  The licensee
 of this program is prohibited from giving any competitor of
 Gaussian, Inc. access to this program.  By using this program,
 the user acknowledges that Gaussian, Inc. is engaged in the
 business of creating and licensing software in the field of
 computational chemistry and represents and warrants to the
 licensee that it is not a competitor of Gaussian, Inc. and that
 it will not use this program in any manner prohibited above.
 ---------------------------------------------------------------
  

 Cite this work as:
 Gaussian Development Version, Revision H.37+,
 M. J. Frisch, G. W. Trucks, H. B. Schlegel, G. E. Scuseria, 
 M. A. Robb, J. R. Cheeseman, G. Scalmani, V. Barone, B. Mennucci, 
 G. A. Petersson, H. Nakatsuji, M. Caricato, X. Li, H. P. Hratchian, 
 A. F. Izmaylov, J. Bloino, B. G. Janesko, F. Lipparini, G. Zheng, 
 J. L. Sonnenberg, W. Liang, M. Hada, M. Ehara, K. Toyota, R. Fukuda, 
 J. Hasegawa, M. Ishida, T. Nakajima, Y. Honda, O. Kitao, H. Nakai, 
 T. Vreven, J. A. Montgomery, Jr., J. E. Peralta, F. Ogliaro, 
 M. Bearpark, J. J. Heyd, E. Brothers, K. N. Kudin, V. N. Staroverov, 
 T. Keith, R. Kobayashi, J. Normand, K. Raghavachari, A. Rendell, 
 J. C. Burant, S. S. Iyengar, J. Tomasi, M. Cossi, N. Rega, 
 J. M. Millam, M. Klene, J. E. Knox, J. B. Cross, V. Bakken, 
 C. Adamo, J. Jaramillo, R. Gomperts, R. E. Stratmann, O. Yazyev, 
 A. J. Austin, R. Cammi, C. Pomelli, J. W. Ochterski, R. L. Martin, 
 K. Morokuma, V. G. Zakrzewski, G. A. Voth, P. Salvador, 
 J. J. Dannenberg, S. Dapprich, P. V. Parandekar, N. J. Mayhall, 
 A. D. Daniels, O. Farkas, J. B. Foresman, J. V. Ortiz, 
 J. Cioslowski, and D. J. Fox, Gaussian, Inc., Wallingford CT, 2010.
 
 *******************************************
 Gaussian DV:  EM64M-GDVRevH.37+ 17-Apr-2014
                  7-Dec-2014 
 *******************************************
 %chk=7.chk
 ------------------------
 #p hf/sto-3g iop(5/33=5)
 ------------------------
 1/38=1,172=1/1;
 2/12=2,17=6,18=5,40=1/2;
 3/6=3,11=9,16=1,25=1,30=1/1,2,3;
 4//1;
 5/5=2,33=5,38=5/2;
 6/7=2,8=2,9=2,10=2,28=1/1;
 99/5=1,9=1/99;
 Leave Link    1 at Sun Dec  7 09:42:38 2014, MaxMem=           0 cpu:               0.0 elap:               0.0
 (Enter /Volumes/Gaussian/gdvh37p/gdv/l101.exe)
 ----
 test
 ----
 Symbolic Z-matrix:
 Charge =  0 Multiplicity = 1
 h                    0     0.        0.        0.30983 
 h                    0     0.        0.       -0.61965 
 
 ITRead=  0  0
 MicOpt= -1 -1
 NAtoms=      2 NQM=        2 NQMF=       0 NMMI=      0 NMMIF=      0
                NMic=       0 NMicF=      0.
                    Isotopes and Nuclear Properties:
 (Nuclear quadrupole moments (NQMom) in fm**2, nuclear magnetic moments (NMagM)
  in nuclear magnetons)

  Atom         1           2
 IAtWgt=           1           1
 AtmWgt=   1.0078250   1.0078250
 NucSpn=           1           1
 AtZEff=   0.0000000   0.0000000
 NQMom=    0.0000000   0.0000000
 NMagM=    2.7928460   2.7928460
 AtZNuc=   1.0000000   1.0000000
 Leave Link  101 at Sun Dec  7 09:42:38 2014, MaxMem=    33554432 cpu:               0.1 elap:               0.1
 (Enter /Volumes/Gaussian/gdvh37p/gdv/l202.exe)
                          Input orientation:                          
 ---------------------------------------------------------------------
 Center     Atomic      Atomic             Coordinates (Angstroms)
 Number     Number       Type             X           Y           Z
 ---------------------------------------------------------------------
      1          1           0        0.000000    0.000000    0.309827
      2          1           0        0.000000    0.000000   -0.619653
 ---------------------------------------------------------------------
 Stoichiometry    H2
 Framework group  D*H[C*(H.H)]
 Deg. of freedom     1
 Full point group                 D*H     NOp   8
 Largest Abelian subgroup         D2H     NOp   8
 Largest concise Abelian subgroup C2      NOp   2
                         Standard orientation:                         
 ---------------------------------------------------------------------
 Center     Atomic      Atomic             Coordinates (Angstroms)
 Number     Number       Type             X           Y           Z
 ---------------------------------------------------------------------
      1          1           0        0.000000    0.000000    0.464740
      2          1           0        0.000000    0.000000   -0.464740
 ---------------------------------------------------------------------
 Rotational constants (GHZ):      0.0000000   1160.8656310   1160.8656310
 Leave Link  202 at Sun Dec  7 09:42:38 2014, MaxMem=    33554432 cpu:               0.0 elap:               0.0
 (Enter /Volumes/Gaussian/gdvh37p/gdv/l301.exe)
 Standard basis: STO-3G (5D, 7F)
 Ernie: Thresh=  0.10000D-02 Tol=  0.10000D-05 Strict=F.
 There are     1 symmetry adapted cartesian basis functions of AG  symmetry.
 There are     0 symmetry adapted cartesian basis functions of B1G symmetry.
 There are     0 symmetry adapted cartesian basis functions of B2G symmetry.
 There are     0 symmetry adapted cartesian basis functions of B3G symmetry.
 There are     0 symmetry adapted cartesian basis functions of AU  symmetry.
 There are     1 symmetry adapted cartesian basis functions of B1U symmetry.
 There are     0 symmetry adapted cartesian basis functions of B2U symmetry.
 There are     0 symmetry adapted cartesian basis functions of B3U symmetry.
 There are     1 symmetry adapted basis functions of AG  symmetry.
 There are     0 symmetry adapted basis functions of B1G symmetry.
 There are     0 symmetry adapted basis functions of B2G symmetry.
 There are     0 symmetry adapted basis functions of B3G symmetry.
 There are     0 symmetry adapted basis functions of AU  symmetry.
 There are     1 symmetry adapted basis functions of B1U symmetry.
 There are     0 symmetry adapted basis functions of B2U symmetry.
 There are     0 symmetry adapted basis functions of B3U symmetry.
     2 basis functions,     6 primitive gaussians,     2 cartesian basis functions
     1 alpha electrons        1 beta electrons
       nuclear repulsion energy         0.5693260865 Hartrees.
 IExCor=    0 DFT=F Ex=HF Corr=None ExCW=0 ScaHFX=  1.000000
 ScaDFX=  1.000000  1.000000  1.000000  1.000000 ScalE2=  1.000000  1.000000
 IRadAn=      0 IRanWt=     -1 IRanGd=            0 ICorTp=0 IEmpDi=  4
 NAtoms=    2 NActive=    2 NUniq=    1 SFac= 4.00D+00 NAtFMM=   60 NAOKFM=F Big=F
 Integral buffers will be    131072 words long.
 Raffenetti 1 integral format.
 Two-electron integral symmetry is turned on.
 Leave Link  301 at Sun Dec  7 09:42:38 2014, MaxMem=    33554432 cpu:               0.0 elap:               0.0
 (Enter /Volumes/Gaussian/gdvh37p/gdv/l302.exe)
 NPDir=0 NMtPBC=     1 NCelOv=     1 NCel=       1 NClECP=     1 NCelD=      1
         NCelK=      1 NCelE2=     1 NClLst=     1 CellRange=     0.0.
 One-electron integrals computed using PRISM.
 One-electron integral symmetry used in STVInt
 NBasis=     2 RedAO= T EigKep=  4.61D-01  NBF=     1     0     0     0     0     1     0     0
 NBsUse=     2 1.00D-06 EigRej= -1.00D+00 NBFU=     1     0     0     0     0     1     0     0
 Leave Link  302 at Sun Dec  7 09:42:38 2014, MaxMem=    33554432 cpu:               0.0 elap:               0.0
 (Enter /Volumes/Gaussian/gdvh37p/gdv/l303.exe)
 DipDrv:  MaxL=1.
 Leave Link  303 at Sun Dec  7 09:42:38 2014, MaxMem=    33554432 cpu:               0.0 elap:               0.0
 (Enter /Volumes/Gaussian/gdvh37p/gdv/l401.exe)
 ExpMin= 1.69D-01 ExpMax= 3.43D+00 ExpMxC= 3.43D+00 IAcc=1 IRadAn=         1 AccDes= 0.00D+00
 Harris functional with IExCor=  205 and IRadAn=       1 diagonalized for initial guess.
 HarFok:  IExCor=  205 AccDes= 0.00D+00 IRadAn=         1 IDoV= 1 UseB2=F ITyADJ=14
 ICtDFT=  3500011 ScaDFX=  1.000000  1.000000  1.000000  1.000000
 FoFCou: FMM=F IPFlag=           0 FMFlag=      100000 FMFlg1=           0
         NFxFlg=           0 DoJE=T BraDBF=F KetDBF=T FulRan=T
         wScrn=  0.000000 ICntrl=       500 IOpCl=  0 I1Cent=   200000004 NGrid=           0
         NMat0=    1 NMatS0=      1 NMatT0=    0 NMatD0=    1 NMtDS0=    0 NMtDT0=    0
 Petite list used in FoFCou.
 Harris En= -1.14764418679705    
 JPrj=0 DoOrth=F DoCkMO=F.
 Initial guess orbital symmetries:
       Occupied  (SGG)
       Virtual   (SGU)
 The electronic state of the initial guess is 1-SGG.
 Leave Link  401 at Sun Dec  7 09:42:38 2014, MaxMem=    33554432 cpu:               0.0 elap:               0.0
 (Enter /Volumes/Gaussian/gdvh37p/gdv/l502.exe)
 GetPCM: File not found, return IValue=0.
 A Direct SCF calculation will be performed.
 ReadGW:  IGet=1 IStart=          18 Next=          18 LGW=           0.
 ShPair: Thresh= 1.00D-10 NBox=     0 BxSize= 0.00D+00 RnKept= 1.76D+00
         NSMCal=                    3 NSMKep=                   3
 IHM=  1 FMM=F JS2E= 1 NPI=  -1 NP=   1 NAt=     2 NB=      2 NM=     1 NOp=2 NPX=   2 ICOK=T
 SABFC:  FilMap=F DoRead=T UsPure=F NBasis=     2 NBas6D=     2 NB=     2 NOp=8 jStart=         116
 MulTab 
              1            2            3            4            5
     1            1            2            3            4            5
     2            2            1            4            3            6
     3            3            4            1            2            7
     4            4            3            2            1            8
     5            5            6            7            8            1
     6            6            5            8            7            2
     7            7            8            5            6            3
     8            8            7            6            5            4
              6            7            8
     1            6            7            8
     2            5            8            7
     3            8            5            6
     4            7            6            5
     5            2            3            4
     6            1            4            3
     7            4            1            2
     8            3            2            1
 Order+ChrTbl 
              1            2            3            4            5
     1            1            1            1            1            1
     2            3            1           -1            1           -1
     3            2            1            1           -1           -1
     4            4            1           -1           -1            1
     5            8            1           -1           -1            1
     6            7            1           -1            1           -1
     7            6            1            1           -1           -1
     8            5            1            1            1            1
              6            7            8            9
     1            1            1            1            1
     2            1           -1            1           -1
     3            1            1           -1           -1
     4            1           -1           -1            1
     5           -1            1            1           -1
     6           -1            1           -1            1
     7           -1           -1            1            1
     8           -1           -1           -1           -1
 NEqB 
              1            2            3            4            5
     1            1            2            1            2            1
     2            2            1            2            1            2
              6            7            8
     1            1            2            2
     2            2            1            1

 SABF information in SABFC1:
 NS=            0           1           1           1           1           1           2           2           2
 NS2=           0           2           2           2           2           2           3           3           3
 NS4=           0           3           3           3           3           3           4           4           4
 Block     1 IReps     1     6
            AOs        1     2
            SAOs       1     1
                 1             2 
      1   0.707107D+00  0.707107D+00
      2   0.707107D+00 -0.707107D+00
 SABFC:  FilMap=T DoRead=T UsPure=F NBasis=     2 NBas6D=     2 NB=     2 NOp=8 jStart=         116
 MulTab 
              1            2            3            4            5
     1            1            2            3            4            5
     2            2            1            4            3            6
     3            3            4            1            2            7
     4            4            3            2            1            8
     5            5            6            7            8            1
     6            6            5            8            7            2
     7            7            8            5            6            3
     8            8            7            6            5            4
              6            7            8
     1            6            7            8
     2            5            8            7
     3            8            5            6
     4            7            6            5
     5            2            3            4
     6            1            4            3
     7            4            1            2
     8            3            2            1
 Order+ChrTbl 
              1            2            3            4            5
     1            1            1            1            1            1
     2            3            1           -1            1           -1
     3            2            1            1           -1           -1
     4            4            1           -1           -1            1
     5            8            1           -1           -1            1
     6            7            1           -1            1           -1
     7            6            1            1           -1           -1
     8            5            1            1            1            1
              6            7            8            9
     1            1            1            1            1
     2            1           -1            1           -1
     3            1            1           -1           -1
     4            1           -1           -1            1
     5           -1            1            1           -1
     6           -1            1           -1            1
     7           -1           -1            1            1
     8           -1           -1           -1           -1
 NEqB 
              1            2            3            4            5
     1            1            2            1            2            1
     2            2            1            2            1            2
              6            7            8
     1            1            2            2
     2            2            1            1

 SABF information in SABFC1:
 NS=            0           1           1           1           1           1           2           2           2
 NS2=           0           2           2           2           2           2           3           3           3
 NS4=           0           3           3           3           3           3           4           4           4
 Block     1 IReps     1     6
            AOs        1     2
            SAOs       1     1
                 1             2 
      1   0.707107D+00  0.707107D+00
      2   0.707107D+00 -0.707107D+00
 SBF Map 
              1            2
     1            1            1
     2            1            2
 SetICI:  IOpClM=           0 LR1=              1 LR2=              0 LR3=              0
          LRAOJ=            6 InStor=           4 jStart=         116 jR1=            232
          jR2=            236 jR3=            236 LenR=             4 jVInt=          238
          jVSAO=          238 jVPerm=         236 MDV=       33554432
 Keep R1 ints in memory in symmetry-blocked form, NReq=801096.
 FoFCou: FMM=F IPFlag=           0 FMFlag=           0 FMFlg1=           0
         NFxFlg=           0 DoJE=F BraDBF=F KetDBF=F FulRan=T
         wScrn=  0.000000 ICntrl=       600 IOpCl=  0 I1Cent=           0 NGrid=           0
         NMat0=    1 NMatS0=      3 NMatT0=    0 NMatD0=    1 NMtDS0=    0 NMtDT0=    0
 Petite list used in FoFCou.
 FoFCou:  KetSym=F NOpSet=  2 NOpAb=2 NOp=  2.
 FoFCou:  CnvScl= 1.00D+00 Thresh= 1.00D-10 IAcrcy=      10.
 2e integrals                           
 The Coulomb operator will be used
 ShPair: Thresh= 1.00D-10 NBox=     0 BxSize= 0.00D+00 RnKept= 1.76D+00
         NSMCal=                    3 NSMKep=                   3
 PrismS was handed    33553333 working-precision words and     3 shell-pairs
 PrismS will use Minimum- Mop paths
 [0] accuracy = 0.10D-09   Chebyshev Delta = 0.37D-02   Critical T = 23.77   # of points =   3192


           Zone         Bra Derivative Range     Ket Derivative Range
           ==========================================================
             1                 0 to 0                   0 to 0
           ==========================================================

                             -------------------
                             The (ss|ss) Classes
 Not enough memory for any path:
 MxKBra=    9 MxKKet=    9 Memory=    33540477.
                             -------------------

       Available PRISM Paths:  0  1  4  5 10 11 14 29

    No. of target [m0|n0]   =     1
    No. of locations needed =     1

       T1    T2    T3    T4    T5    T6    T7    T8    T9   T10   T11   T12
        0     0     0     0     0     0     0     0     0     0     0     0
   C1   C2   C3   C4   C5   C6   C7   C8   C9  C10  C11  C12  C13  C14  C15  C16
    1    1    1    1    1    1    1    1    1    1    1    1    1    1    1    1
    1    1    1    1    1    1    1    1    1    1    1    1    1    1    1    1

                   VR1     cost =       0
                   Bra-TRn cost =       0
                   Ket-TRn cost =       0

                   Space needed for drivers          =     185
                   Space needed for driver formation =     186

                   KBra   KKet   Path     Mops    Wds/S4    MaxCom 

                   C37 =       4
                   C38 =       4
 Prsmar:  LTot= 0 LBK=  0  0 KBK=     9     9 Path= 0 Kost=          80 NPerS4=         677 nW0=          81 nW1=           9 nW2=          81
          nW0X=           0 NPS4B=         495 jNext=       12961 NLeft=    33540369 jEnd=       45458 LenV=    33553333 MaxCom=          48
 FoFCou: LinMIO=F DoNuc=F BraDBF=F KetDBF=F HaveP=F PDBF=F HaveZ=F HaveW=F
         NIJTC =       1 NIJTAt=       0 NIJTCD=       0 NIJTT =       1
         IJTBeg=       1 IJTEnd=       1 KLTBeg=       1 KLTEnd=       1
         IPTBeg=       1 IPTEnd=       1 IPTBCv=       1 IPTECv=       1
         IZTBeg=       1 IZTEnd=       1 IZTBCv=       1 IZTECv=       1
         IWTBeg=       2 IWTEnd=       1 IWTBCv=       2 IWTECv=       1
         INTBeg=       1 INTEnd=       0 IFTBCv=       1 IFTECv=       1
 NCel replicated for PrismC:     1
 CoulSu:  IncDef=  1024 NBBP=              6 NTPThr=   100 NPartT=    1 Incr=           1 LDynOK=F.
 CoulSu:  NPrtUS=   1 ThrOK=F IAlg=1 NPAlg=1 LenDen=           0 LWGrdD=           0 DoCopy=F.
 Enter PrismC: JobTyp=20 DoJE=F Cont=F.
 PrismC:  IPart=     0 DynPar=F LinDyn=F Incr=           1 UseFst=F UseS4=T IGathr=1.
 PrismC was handed    33553312 working-precision words and     3 shell-pairs
 PrismC will use Minimum- Mop paths
 [0] accuracy = 0.10D-09   Chebyshev Delta = 0.37D-02   Critical T = 23.77   # of points =   3192


           Zone         Bra Derivative Range     Ket Derivative Range
           ==========================================================
             1                 0 to 0                   0 to 0
           ==========================================================

           Zone         Bra Derivative Range     Ket Derivative Range
           ==========================================================
             1                 0 to 0                   0 to 0
           ==========================================================

                             -------------------
                             The (ss|ss) Classes
 Not enough memory for any path:
 MxKBra=    9 MxKKet=    9 Memory=    33540456.
                             -------------------

       Available PRISM Paths:  0  1  4  5 10 11 14 29

    No. of target [m0|n0]   =     1
    No. of locations needed =     1

       T1    T2    T3    T4    T5    T6    T7    T8    T9   T10   T11   T12
        0     0     0     0     0     0     0     0     0     0     0     0
   C1   C2   C3   C4   C5   C6   C7   C8   C9  C10  C11  C12  C13  C14  C15  C16
    1    1    1    1    1    1    1    1    1    1    1    1    1    1    1    1
    1    1    1    1    1    1    1    1    1    1    1    1    1    1    1    1

                   VR1     cost =       0
                   Bra-TRn cost =       0
                   Ket-TRn cost =       0

                   Space needed for drivers          =     185
                   Space needed for driver formation =     186

                   KBra   KKet   Path     Mops    Wds/S4    MaxCom 

                   C37 =       4
                   C38 =       4
 Prsmar:  LTot= 0 LBK=  0  0 KBK=     9     9 Path= 0 Kost=          80 NPerS4=         677 nW0=          81 nW1=           9 nW2=          81
          nW0X=           0 NPS4B=         495 jNext=       12962 NLeft=    33540347 jEnd=       45459 LenV=    33553312 MaxCom=          48
 IPart=  0 NShTot=           4 NShNF=           4 NShFF=           0 NBatch=           1 AvBLen=         4.0 MinMC=      48
 CoulSu:  NxtVal=              2 LenVP=       33553312 MinMC=      48.
 Pruned (  75, 302) grid will be used in numerical quadrature.
 SolvDB: Returning the number of solvent in the dababase, IS(1)= 184.
 Closed shell SCF:
 Using DIIS extrapolation, IDIIS=  1040.
 NBasis=        2 NAllTT=      231 NAllSq=      441 NWIIB=         0
 INEq=         81 IIJ=         113 ID=          342
 IDD=         783 IDA=         342 IDB=         573 IF=          804
 IFF=        1245 IFA=         804 IFB=        1035 IScr2=      1266
 IV=         1434 IBuf2E=      236 IMin=      18075
 IOpCl=         0
 NGot=    33554432 LenX=    33552999 LenY=    33552117
 Requested convergence on RMS density matrix=1.00D-08 within 128 cycles.
 Requested convergence on MAX density matrix=1.00D-06.
 Requested convergence on             energy=1.00D-06.
 No special actions if energy rises.
 Selected VarAcc= 1.

 Cycle   1  Pass 1  IDiag  1:
 Core hamiltonian (alpha):
                1             2 
      1 -0.101283D+01
      2 -0.751795D+00 -0.101283D+01
 Core hamiltonian (beta):
                1             2 
      1 -0.101283D+01
      2 -0.751795D+00 -0.101283D+01
 Density matrix (alpha):
                1             2 
      1  0.324898D+00
      2  0.324898D+00  0.324898D+00
 Density matrix (beta):
                1             2 
      1  0.324898D+00
      2  0.324898D+00  0.324898D+00
 One-electron energy=-0.229329713209D+01
 FoF2E:  PMaxA= 3.25D-01S
 LT D matrices:
                1             2 
      1  0.324898D+00
      2  0.324898D+00  0.324898D+00
 DA number   1 in FoFMem:
                1             2 
      1  0.324898D+00
      2  0.324898D+00  0.324898D+00

 SABF information in FoFMem:
 NS=            0           1           1           1           1           1           2           2           2
 NS2=           0           2           2           2           2           2           3           3           3
 NS4=           0           3           3           3           3           3           4           4           4
 Block     1 IReps     1     6
            AOs        1     2
            SAOs       1     1
                 1             2 
      1   0.707107D+00  0.707107D+00
      2   0.707107D+00 -0.707107D+00
 SBF Map 
              1            2
     1            1            1
     2            1            2
 FoFMem:  NOp1=  2 NOp2=  8 NOpUse=  8 NSOp=  1 NMatL=     1 DoSAO=T
 IM=     1 IB=1 DotPA=          1.29959395
 P:
                1 
      1  0.129959D+01
 IM=     1 IB=2 DotPA=          0.00000000
 P:
 IM=     1 IB=3 DotPA=          0.00000000
 P:
 IM=     1 IB=4 DotPA=          0.00000000
 P:
 IM=     1 IB=5 DotPA=          0.00000000
 P:
 IM=     1 IB=6 DotPA=          0.00000000
 P:
                1 
      1  0.000000D+00
 IM=     1 IB=7 DotPA=          0.00000000
 P:
 IM=     1 IB=8 DotPA=          0.00000000
 P:
 FoFMem:  NOp1=  2 NOp2=  8 NOpUse=  8 NSOp=  1 NMatL=     1 DoSAO=T
 IM=     1 IB=1 DotFA=          1.10087908
 F:
                1 
      1  0.983573D+00
 IM=     1 IB=2 DotFA=          0.00000000
 F:
 IM=     1 IB=3 DotFA=          0.00000000
 F:
 IM=     1 IB=4 DotFA=          0.00000000
 F:
 IM=     1 IB=5 DotFA=          0.00000000
 F:
 IM=     1 IB=6 DotFA=          0.00000000
 F:
                1 
      1  0.000000D+00
 IM=     1 IB=7 DotFA=          0.00000000
 F:
 IM=     1 IB=8 DotFA=          0.00000000
 F:
 FoF2E:  FMaxA= 7.39D-01S
 ChkPGP:  NMat=1 NMatS=1 NMatT=0
 EA= 0.639122516214     0.000000000000E+00 0.000000000000E+00 0.000000000000E+00
 EB= 0.639122516214     0.000000000000E+00 0.000000000000E+00 0.000000000000E+00
 ETotA= 0.639122516214     ETotB= 0.639122516214    
 1/2 <PG(P)>=           0.639122516214
 Reformed J/G matrix (alpha):
                1             2 
      1  0.739031D+00
      2  0.244542D+00  0.739031D+00
 Reformed J/G matrix (beta):
                1             2 
      1  0.739031D+00
      2  0.244542D+00  0.739031D+00
 IMat=  1 1/2 <PG(P)>=           0.639122516214
 IMat=  1 EOne=-0.229329713209D+01 ETwo= 0.639122516214D+00 Energy=-0.165417461587D+01
 1/2 <PG(P)>=           0.639122516214
 Fock matrix (alpha):
                1             2 
      1 -0.273800D+00
      2 -0.507254D+00 -0.273800D+00
 Fock matrix (beta):
                1             2 
      1 -0.273800D+00
      2 -0.507254D+00 -0.273800D+00
 E= -1.08484852933183    
 Alpha error matrix at iteration:
                1             2 
      1  0.000000D+00
      2  0.000000D+00  0.000000D+00
 DIIS: error= 0.00D+00 at cycle   1 NSaved=   1.
 B matrix at iteration          1
                 1             2 
      1   0.000000D+00 -0.100000D+01
      2  -0.100000D+01  0.000000D+00
 Tr matrix at iteration          1
                 1             2 
      1   0.000000D+00  0.000000D+00
      2   0.000000D+00 -0.507526D+00
 BE matrix at iteration          1
                 1             2 
      1   0.000000D+00 -0.100000D+01
      2  -0.100000D+01  0.000000D+00
 NSaved= 1 IEnMin= 1 EnMin= -1.08484852933183     IErMin= 1 ErrMin= 0.00D+00
 ErrMax= 0.00D+00  0.00D+00 EMaxC= 1.00D-01 BMatC= 0.00D+00 BMatP= 0.00D+00
 IDIUse=1 WtCom= 1.00D+00 WtEn= 0.00D+00
 Coeff-Com:  0.100D+01
 Coeff-En:   0.000D+00
 Coeff:      0.100D+01
 NewF-IndFok=    0
 NewF-Coef=   1.00D+00
 Extrapolated FA at iteration:
                1             2 
      1 -0.273800D+00
      2 -0.507254D+00 -0.273800D+00
 FMO in SymVFV:
                1             2 
      1 -0.507526D+00
      2  0.000000D+00  0.506344D+00
 IB=1 NBFU=    1 NOccSy=    1
 Diag=  -0.50753
 IB=6 NBFU=    1 NOccSy=    0
 Diag=   0.50634
 Gap=     1.014 Goal=   None    Shift=    0.000
 Skip diagonalization as Alpha Fock matrix is already diagonal.
 Alpha MO coefficients at cycle    1:
                 1             2 
      1   0.569999D+00  0.104138D+01
      2   0.569999D+00 -0.104138D+01
 Alpha density matrix  at cycle    1:
                1             2 
      1  0.324898D+00
      2  0.324898D+00  0.324898D+00
 RMSDP=0.00D+00 MaxDP=0.00D+00              OVMax= 0.00D+00

 SCF Done:  E(RHF) =  -1.08484852933     A.U. after    1 cycles
            NFock=  1  Conv=0.00D+00     -V/T= 1.9279
 KE= 1.169142681524D+00 PE=-3.462439813613D+00 EE= 6.391225162143D-01
 Alpha MOs:
                           1         2
     Eigenvalues --    -0.50753   0.50634
   1                    0.57000   1.04138
   2                    0.57000  -1.04138
 Final density matrix:
                1             2 
      1  0.324898D+00
      2  0.324898D+00  0.324898D+00
 Total density matrix:
                1             2 
      1  0.649797D+00
      2  0.649797D+00  0.649797D+00
 -W:
                1             2 
      1  0.329789D+00
      2  0.329789D+00  0.329789D+00
 Leave Link  502 at Sun Dec  7 09:42:38 2014, MaxMem=    33554432 cpu:               0.0 elap:               0.0
 (Enter /Volumes/Gaussian/gdvh37p/gdv/l601.exe)
 Copying SCF densities to generalized density rwf, IOpCl= 0 IROHF=0.

 **********************************************************************

            Population analysis using the SCF density.

 **********************************************************************

 Orbital symmetries:
       Occupied  (SGG)
       Virtual   (SGU)
 The electronic state is 1-SGG.
 Alpha  occ. eigenvalues --   -0.50753
 Alpha virt. eigenvalues --    0.50634
          Condensed to atoms (all electrons):
               1          2
     1  H    0.649797   0.350203
     2  H    0.350203   0.649797
 Mulliken charges:
               1
     1  H    0.000000
     2  H    0.000000
 Sum of Mulliken charges =   0.00000
 Mulliken charges with hydrogens summed into heavy atoms:
               1
 Electronic spatial extent (au):  <R**2>=              5.2887
 Charge=              0.0000 electrons
 Dipole moment (field-independent basis, Debye):
    X=              0.0000    Y=              0.0000    Z=              0.0000  Tot=              0.0000
 Quadrupole moment (field-independent basis, Debye-Ang):
   XX=             -1.8743   YY=             -1.8743   ZZ=             -1.2900
   XY=              0.0000   XZ=              0.0000   YZ=              0.0000
 Traceless Quadrupole moment (field-independent basis, Debye-Ang):
   XX=             -0.1948   YY=             -0.1948   ZZ=              0.3895
   XY=              0.0000   XZ=              0.0000   YZ=              0.0000
 Octapole moment (field-independent basis, Debye-Ang**2):
  XXX=              0.0000  YYY=              0.0000  ZZZ=              0.0000  XYY=              0.0000
  XXY=              0.0000  XXZ=              0.0000  XZZ=              0.0000  YZZ=              0.0000
  YYZ=              0.0000  XYZ=              0.0000
 Hexadecapole moment (field-independent basis, Debye-Ang**3):
 XXXX=             -1.5676 YYYY=             -1.5676 ZZZZ=             -3.0141 XXXY=              0.0000
 XXXZ=              0.0000 YYYX=              0.0000 YYYZ=              0.0000 ZZZX=              0.0000
 ZZZY=              0.0000 XXYY=             -0.5225 XXZZ=             -0.7876 YYZZ=             -0.7876
 XXYZ=              0.0000 YYXZ=              0.0000 ZZXY=              0.0000
 N-N= 5.693260865430D-01 E-N=-3.462439813613D+00  KE= 1.169142681524D+00
 Symmetry AG   KE= 1.169142681524D+00
 Symmetry B1G  KE= 0.000000000000D+00
 Symmetry B2G  KE= 0.000000000000D+00
 Symmetry B3G  KE= 0.000000000000D+00
 Symmetry AU   KE= 0.000000000000D+00
 Symmetry B1U  KE= 0.000000000000D+00
 Symmetry B2U  KE= 0.000000000000D+00
 Symmetry B3U  KE= 0.000000000000D+00
 No NMR shielding tensors so no spin-rotation constants.
 Leave Link  601 at Sun Dec  7 09:42:38 2014, MaxMem=    33554432 cpu:               0.1 elap:               0.1
 (Enter /Volumes/Gaussian/gdvh37p/gdv/l9999.exe)

 Test job not archived.
 1\1\GINC-VALPARAISO\SP\RHF\STO-3G\H2\XSLI\07-Dec-2014\0\\#p hf/sto-3g 
 iop(5/33=5)\\test\\0,1\H,0,0.,0.,0.309827\H,0,0.,0.,-0.619653\\Version
 =EM64M-GDVRevH.37+\State=1-SGG\HF=-1.0848485\RMSD=0.000e+00\Dipole=0.,
 0.,0.\Quadrupole=-0.1448103,-0.1448103,0.2896206,0.,0.,0.\PG=D*H [C*(H
 1.H1)]\\@


 BREAD HAS TO MOLD IN ORDER TO GET PENICILLIN.
          -- JERRY BOATZ
 Job cpu time:       0 days  0 hours  0 minutes  0.4 seconds.
 Elapsed time:       0 days  0 hours  0 minutes  0.4 seconds.
 File lengths (MBytes):  RWF=      5 Int=      0 D2E=      0 Chk=      1 Scr=      1
 Normal termination of Gaussian DV at Sun Dec  7 09:42:39 2014.
