 Entering Gaussian System, Link 0=gdv
 Input=ch4_631g.com
 Output=ch4_631g.log
 Initial command:
 /home/gauss/gdvi02/gdv/l1.exe "/home/GauScr/Gau-14643.inp" -scrdir="/home/GauScr/"
 Entering Link 1 = /home/gauss/gdvi02/gdv/l1.exe PID=     14644.
  
 Copyright (c) 1988,1990,1992,1993,1995,1998,2003,2009,2014,
            Gaussian, Inc.  All Rights Reserved.
  
 This is the private, development version of
 the Gaussian(R) DV system of programs. It is based on
 the Gaussian(R) 09 system (copyright 2009, Gaussian, Inc.),
 the Gaussian(R) 03 system (copyright 2003, Gaussian, Inc.),
 the Gaussian(R) 98 system (copyright 1998, Gaussian, Inc.),
 the Gaussian(R) 94 system (copyright 1995, Gaussian, Inc.),
 the Gaussian 92(TM) system (copyright 1992, Gaussian, Inc.),
 the Gaussian 90(TM) system (copyright 1990, Gaussian, Inc.),
 the Gaussian 88(TM) system (copyright 1988, Gaussian, Inc.),
 the Gaussian 86(TM) system (copyright 1986, Carnegie Mellon
 University), and the Gaussian 82(TM) system (copyright 1983,
 Carnegie Mellon University). Gaussian is a federally registered
 trademark of Gaussian, Inc.
  
 This software contains proprietary and confidential information,
 including trade secrets, belonging to Gaussian, Inc.
  
 This software is provided under written license and may be
 used, copied, transmitted, or stored only in accord with that
 written license.
  
 The following legend is applicable only to US Government
 contracts under FAR:
  
                    RESTRICTED RIGHTS LEGEND
  
 Use, reproduction and disclosure by the US Government is
 subject to restrictions as set forth in subparagraphs (a)
 and (c) of the Commercial Computer Software - Restricted
 Rights clause in FAR 52.227-19.
  
 Gaussian, Inc.
 340 Quinnipiac St., Bldg. 40, Wallingford CT 06492
  
  
 ---------------------------------------------------------------
 Warning -- This program may not be used in any manner that
 competes with the business of Gaussian, Inc. or will provide
 assistance to any competitor of Gaussian, Inc.  The licensee
 of this program is prohibited from giving any competitor of
 Gaussian, Inc. access to this program.  By using this program,
 the user acknowledges that Gaussian, Inc. is engaged in the
 business of creating and licensing software in the field of
 computational chemistry and represents and warrants to the
 licensee that it is not a competitor of Gaussian, Inc. and that
 it will not use this program in any manner prohibited above.
 ---------------------------------------------------------------
  

 Cite this work as:
 Gaussian Development Version, Revision I.02,
 M. J. Frisch, G. W. Trucks, H. B. Schlegel, G. E. Scuseria, 
 M. A. Robb, J. R. Cheeseman, G. Scalmani, V. Barone, B. Mennucci, 
 G. A. Petersson, H. Nakatsuji, M. Caricato, X. Li, H. P. Hratchian, 
 J. Bloino, B. G. Janesko, A. F. Izmaylov, F. Lipparini, G. Zheng, 
 J. L. Sonnenberg, W. Liang, M. Hada, M. Ehara, K. Toyota, R. Fukuda, 
 J. Hasegawa, M. Ishida, T. Nakajima, Y. Honda, O. Kitao, H. Nakai, 
 T. Vreven, K. Throssell, J. A. Montgomery, Jr., J. E. Peralta, 
 F. Ogliaro, M. Bearpark, J. J. Heyd, E. Brothers, K. N. Kudin, 
 V. N. Staroverov, T. Keith, R. Kobayashi, J. Normand, 
 K. Raghavachari, A. Rendell, J. C. Burant, S. S. Iyengar, J. Tomasi, 
 M. Cossi, N. Rega, J. M. Millam, M. Klene, J. E. Knox, J. B. Cross, 
 V. Bakken, C. Adamo, J. Jaramillo, R. Gomperts, R. E. Stratmann, 
 O. Yazyev, A. J. Austin, R. Cammi, C. Pomelli, J. W. Ochterski, 
 R. L. Martin, K. Morokuma, V. G. Zakrzewski, G. A. Voth, 
 P. Salvador, J. J. Dannenberg, S. Dapprich, P. V. Parandekar, 
 N. J. Mayhall, A. D. Daniels, O. Farkas, J. B. Foresman, 
 J. V. Ortiz, J. Cioslowski, and D. J. Fox, 
 Gaussian, Inc., Wallingford CT, 2014.
 
 ******************************************
 Gaussian DV:  ES64L-GDVRevI.02  7-Dec-2014
                29-May-2015 
 ******************************************
 ----------------------------------------------------------------------
 #p hf/6-31G GFInput pop=full iop33(3=5) output=RawMatrixElement units=
 bohr
 ----------------------------------------------------------------------
 1/20=1,38=1,172=1/1;
 2/12=2,17=6,18=5,40=1/2;
 3/5=1,6=6,11=9,24=10,25=1,30=1,33=5,160=2000000/1,2,3;
 4//1;
 5/5=2,38=5/2;
 6/7=3,28=1,125=2000000/1;
 99/5=1,6=100000,9=1,125=2000000/99;
 Leave Link    1 at Fri May 29 13:54:20 2015, MaxMem=           0 cpu:               0.0 elap:               0.0
 (Enter /home/gauss/gdvi02/gdv/l101.exe)
 -------------
 CH4 6-31G SCF
 -------------
 Symbolic Z-matrix:
 Charge =  0 Multiplicity = 1
 6                     0.        0.        0. 
 1                     1.18372  -1.18372  -1.18372 
 1                     1.18372   1.18372   1.18372 
 1                    -1.18372   1.18372  -1.18372 
 1                    -1.18372  -1.18372   1.18372 
 
 ITRead=  0  0  0  0  0
 MicOpt= -1 -1 -1 -1 -1
 NAtoms=      5 NQM=        5 NQMF=       0 NMMI=      0 NMMIF=      0
                NMic=       0 NMicF=      0.
                    Isotopes and Nuclear Properties:
 (Nuclear quadrupole moments (NQMom) in fm**2, nuclear magnetic moments (NMagM)
  in nuclear magnetons)

  Atom         1           2           3           4           5
 IAtWgt=          12           1           1           1           1
 AtmWgt=  12.0000000   1.0078250   1.0078250   1.0078250   1.0078250
 NucSpn=           0           1           1           1           1
 AtZEff=   0.0000000   0.0000000   0.0000000   0.0000000   0.0000000
 NQMom=    0.0000000   0.0000000   0.0000000   0.0000000   0.0000000
 NMagM=    0.0000000   2.7928460   2.7928460   2.7928460   2.7928460
 AtZNuc=   6.0000000   1.0000000   1.0000000   1.0000000   1.0000000
 Leave Link  101 at Fri May 29 13:54:20 2015, MaxMem=    33554432 cpu:               0.1 elap:               0.1
 (Enter /home/gauss/gdvi02/gdv/l202.exe)
                          Input orientation:                          
 ---------------------------------------------------------------------
 Center     Atomic      Atomic             Coordinates (Angstroms)
 Number     Number       Type             X           Y           Z
 ---------------------------------------------------------------------
      1          6           0        0.000000    0.000000    0.000000
      2          1           0        0.626400   -0.626400   -0.626400
      3          1           0        0.626400    0.626400    0.626400
      4          1           0       -0.626400    0.626400   -0.626400
      5          1           0       -0.626400   -0.626400    0.626400
 ---------------------------------------------------------------------
                    Distance matrix (angstroms):
                    1          2          3          4          5
     1  C    0.000000
     2  H    1.084957   0.000000
     3  H    1.084957   1.771727   0.000000
     4  H    1.084957   1.771727   1.771727   0.000000
     5  H    1.084957   1.771727   1.771727   1.771727   0.000000
 Stoichiometry    CH4
 Framework group  TD[O(C),4C3(H)]
 Deg. of freedom     1
 Full point group                 TD      NOp  24
 Largest Abelian subgroup         D2      NOp   4
 Largest concise Abelian subgroup D2      NOp   4
                         Standard orientation:                         
 ---------------------------------------------------------------------
 Center     Atomic      Atomic             Coordinates (Angstroms)
 Number     Number       Type             X           Y           Z
 ---------------------------------------------------------------------
      1          6           0        0.000000    0.000000    0.000000
      2          1           0        0.626400    0.626400    0.626400
      3          1           0       -0.626400   -0.626400    0.626400
      4          1           0       -0.626400    0.626400   -0.626400
      5          1           0        0.626400   -0.626400   -0.626400
 ---------------------------------------------------------------------
 Rotational constants (GHZ):    159.7491542    159.7491542    159.7491542
 Leave Link  202 at Fri May 29 13:54:20 2015, MaxMem=    33554432 cpu:               0.0 elap:               0.0
 (Enter /home/gauss/gdvi02/gdv/l301.exe)
 Standard basis: 6-31G (6D, 7F)
                         Coordinates in L301:                         
 ---------------------------------------------------------------------
 Center     Atomic      Atomic             Coordinates (Angstroms)
 Number     Number       Type             X           Y           Z
 ---------------------------------------------------------------------
      1          6           0        0.000000    0.000000    0.000000
      2          1           0        0.626400    0.626400    0.626400
      3          1           0       -0.626400   -0.626400    0.626400
      4          1           0       -0.626400    0.626400   -0.626400
      5          1           0        0.626400   -0.626400   -0.626400
 ---------------------------------------------------------------------
 FixB: optimizing general contractions.
 Ernie: Thresh=  0.10000D-02 Tol=  0.10000D-05 Strict=F.
 IA=     1 ShT= 0 ShC= 0 NL=   1 NS=   0.
         I=   1 JX=   6 NP=   3
 IA=     1 L=0 SC=0 ISt=    0 NBk=    0 NP=    0 IndPr=    0.
 IA=     1 ShT= 1 ShC= 0 NL=   2 NS=   1.
         I=   1 JX=   2 NP=   3
         I=   2 JX=   3 NP=   1
 IA=     1 L=1 SC=0 ISt=    0 NBk=    0 NP=    0 IndPr=    0.
 IA=     2 ShT= 0 ShC= 0 NL=   2 NS=   1.
         I=   1 JX=   4 NP=   3
         I=   2 JX=   5 NP=   1
 IA=     2 L=0 SC=0 ISt=    0 NBk=    0 NP=    0 IndPr=    0.
 IA=     3 ShT= 0 ShC= 0 NL=   2 NS=   1.
         I=   1 JX=   6 NP=   3
         I=   2 JX=   7 NP=   1
 IA=     3 L=0 SC=0 ISt=    0 NBk=    0 NP=    0 IndPr=    0.
 IA=     4 ShT= 0 ShC= 0 NL=   2 NS=   1.
         I=   1 JX=   8 NP=   3
         I=   2 JX=   9 NP=   1
 IA=     4 L=0 SC=0 ISt=    0 NBk=    0 NP=    0 IndPr=    0.
 IA=     5 ShT= 0 ShC= 0 NL=   2 NS=   1.
         I=   1 JX=  10 NP=   3
         I=   2 JX=  11 NP=   1
 IA=     5 L=0 SC=0 ISt=    0 NBk=    0 NP=    0 IndPr=    0.
 Electric field displacement of shell     1 is  0.00D+00
 Electric field displacement of shell     2 is  0.00D+00
 Electric field displacement of shell     3 is  0.00D+00
 Electric field displacement of shell     4 is  0.00D+00
 Electric field displacement of shell     5 is  0.00D+00
 Electric field displacement of shell     6 is  0.00D+00
 Electric field displacement of shell     7 is  0.00D+00
 Electric field displacement of shell     8 is  0.00D+00
 Electric field displacement of shell     9 is  0.00D+00
 Electric field displacement of shell    10 is  0.00D+00
 Electric field displacement of shell    11 is  0.00D+00
 AO basis set in the form of general basis input (Overlap normalization):
      1 0
 S   6 1.00       0.000000000000
      0.3047524880D+04  0.1834737132D-02
      0.4573695180D+03  0.1403732281D-01
      0.1039486850D+03  0.6884262226D-01
      0.2921015530D+02  0.2321844432D+00
      0.9286662960D+01  0.4679413484D+00
      0.3163926960D+01  0.3623119853D+00
 SP   3 1.00       0.000000000000
      0.7868272350D+01 -0.1193324198D+00  0.6899906659D-01
      0.1881288540D+01 -0.1608541517D+00  0.3164239610D+00
      0.5442492580D+00  0.1143456438D+01  0.7443082909D+00
 SP   1 1.00       0.000000000000
      0.1687144782D+00  0.1000000000D+01  0.1000000000D+01
 ****
      2 0
 S   3 1.00       0.000000000000
      0.1873113696D+02  0.3349460434D-01
      0.2825394365D+01  0.2347269535D+00
      0.6401216923D+00  0.8137573261D+00
 S   1 1.00       0.000000000000
      0.1612777588D+00  0.1000000000D+01
 ****
      3 0
 S   3 1.00       0.000000000000
      0.1873113696D+02  0.3349460434D-01
      0.2825394365D+01  0.2347269535D+00
      0.6401216923D+00  0.8137573261D+00
 S   1 1.00       0.000000000000
      0.1612777588D+00  0.1000000000D+01
 ****
      4 0
 S   3 1.00       0.000000000000
      0.1873113696D+02  0.3349460434D-01
      0.2825394365D+01  0.2347269535D+00
      0.6401216923D+00  0.8137573261D+00
 S   1 1.00       0.000000000000
      0.1612777588D+00  0.1000000000D+01
 ****
      5 0
 S   3 1.00       0.000000000000
      0.1873113696D+02  0.3349460434D-01
      0.2825394365D+01  0.2347269535D+00
      0.6401216923D+00  0.8137573261D+00
 S   1 1.00       0.000000000000
      0.1612777588D+00  0.1000000000D+01
 ****

 LdAtmC:  AtmChg=     6.000000     1.000000     1.000000     1.000000     1.000000
 AtZEff=     -3.6000000     -1.0000000     -1.0000000     -1.0000000     -1.0000000
 NEqShl: 
              1            2            3            4            5
     1            1            1            1            1            1
     2            2            2            2            2            2
     3            3            3            3            3            3
     4            4           10            8            6            4
     5            5           11            9            7            5
     6            6            8           10            4            8
     7            7            9           11            5            9
     8            8            6            4           10           10
     9            9            7            5           11           11
    10           10            4            6            8            6
    11           11            5            7            9            7
              6            7            8            9           10
     1            1            1            1            1            1
     2            2            2            2            2            2
     3            3            3            3            3            3
     4            4           10            6            6            8
     5            5           11            7            7            9
     6           10            4           10            8            4
     7           11            5           11            9            5
     8            6            8            8            4            6
     9            7            9            9            5            7
    10            8            6            4           10           10
    11            9            7            5           11           11
             11           12           13           14           15
     1            1            1            1            1            1
     2            2            2            2            2            2
     3            3            3            3            3            3
     4           10            8            8            6            6
     5           11            9            9            7            7
     6            6            6            4           10            8
     7            7            7            5           11            9
     8            4           10           10            4           10
     9            5           11           11            5           11
    10            8            4            6            8            4
    11            9            5            7            9            5
             16           17           18           19           20
     1            1            1            1            1            1
     2            2            2            2            2            2
     3            3            3            3            3            3
     4           10           10            8           10            4
     5           11           11            9           11            5
     6            4            8           10            6            8
     7            5            9           11            7            9
     8            6            4            6            8            6
     9            7            5            7            9            7
    10            8            6            4            4           10
    11            9            7            5            5           11
             21           22           23           24
     1            1            1            1            1
     2            2            2            2            2
     3            3            3            3            3
     4            4            8            6            4
     5            5            9            7            5
     6           10            6            4            6
     7           11            7            5            7
     8            8            4            8           10
     9            9            5            9           11
    10            6           10           10            8
    11            7           11           11            9
 NEqBas: 
              1            2            3            4
     1            1            1            1            1
     2            2            2            2            2
     3            3            3           -3           -3
     4            4           -4            4           -4
     5            5           -5           -5            5
     6            6            6            6            6
     7            7            7           -7           -7
     8            8           -8            8           -8
     9            9           -9           -9            9
    10           10           16           14           12
    11           11           17           15           13
    12           12           14           16           10
    13           13           15           17           11
    14           14           12           10           16
    15           15           13           11           17
    16           16           10           12           14
    17           17           11           13           15
 There are     5 symmetry adapted cartesian basis functions of A   symmetry.
   1         1   1   1   1
   2         2   2   2   2
   3         6   6   6   6
   4        10  12  14  16
   5        11  13  15  17
 There are     4 symmetry adapted cartesian basis functions of B1  symmetry.
   6         5   5   5   5
   7         9   9   9   9
   8        10  12 -14 -16
   9        11  13 -15 -17
 There are     4 symmetry adapted cartesian basis functions of B2  symmetry.
  10         4   4   4   4
  11         8   8   8   8
  12        10 -12  14 -16
  13        11 -13  15 -17
 There are     4 symmetry adapted cartesian basis functions of B3  symmetry.
  14         3   3   3   3
  15         7   7   7   7
  16        10 -12 -14  16
  17        11 -13 -15  17
 Order= 1 4 3 2
 Reordered character table:
              1            2            3            4            5
     1            1            1            1            1            1
     2            4            1           -1           -1            1
     3            3            1           -1            1           -1
     4            2            1            1           -1           -1
 NEqShl: 
              1            2            3            4            5
     1            1            1            1            1            1
     2            2            2            2            2            2
     3            3            3            3            3            3
     4            4           10            8            6            4
     5            5           11            9            7            5
     6            6            8           10            4            8
     7            7            9           11            5            9
     8            8            6            4           10           10
     9            9            7            5           11           11
    10           10            4            6            8            6
    11           11            5            7            9            7
              6            7            8            9           10
     1            1            1            1            1            1
     2            2            2            2            2            2
     3            3            3            3            3            3
     4            4           10            6            6            8
     5            5           11            7            7            9
     6           10            4           10            8            4
     7           11            5           11            9            5
     8            6            8            8            4            6
     9            7            9            9            5            7
    10            8            6            4           10           10
    11            9            7            5           11           11
             11           12           13           14           15
     1            1            1            1            1            1
     2            2            2            2            2            2
     3            3            3            3            3            3
     4           10            8            8            6            6
     5           11            9            9            7            7
     6            6            6            4           10            8
     7            7            7            5           11            9
     8            4           10           10            4           10
     9            5           11           11            5           11
    10            8            4            6            8            4
    11            9            5            7            9            5
             16           17           18           19           20
     1            1            1            1            1            1
     2            2            2            2            2            2
     3            3            3            3            3            3
     4           10           10            8           10            4
     5           11           11            9           11            5
     6            4            8           10            6            8
     7            5            9           11            7            9
     8            6            4            6            8            6
     9            7            5            7            9            7
    10            8            6            4            4           10
    11            9            7            5            5           11
             21           22           23           24
     1            1            1            1            1
     2            2            2            2            2
     3            3            3            3            3
     4            4            8            6            4
     5            5            9            7            5
     6           10            6            4            6
     7           11            7            5            7
     8            8            4            8           10
     9            9            5            9           11
    10            6           10           10            8
    11            7           11           11            9
 NEqBas: 
              1            2            3            4
     1            1            1            1            1
     2            2            2            2            2
     3            3            3           -3           -3
     4            4           -4            4           -4
     5            5           -5           -5            5
     6            6            6            6            6
     7            7            7           -7           -7
     8            8           -8            8           -8
     9            9           -9           -9            9
    10           10           16           14           12
    11           11           17           15           13
    12           12           14           16           10
    13           13           15           17           11
    14           14           12           10           16
    15           15           13           11           17
    16           16           10           12           14
    17           17           11           13           15
 There are     5 symmetry adapted basis functions of A   symmetry.
   1         1   1   1   1
   2         2   2   2   2
   3         6   6   6   6
   4        10  12  14  16
   5        11  13  15  17
 There are     4 symmetry adapted basis functions of B1  symmetry.
   6         5   5   5   5
   7         9   9   9   9
   8        10  12 -14 -16
   9        11  13 -15 -17
 There are     4 symmetry adapted basis functions of B2  symmetry.
  10         4   4   4   4
  11         8   8   8   8
  12        10 -12  14 -16
  13        11 -13  15 -17
 There are     4 symmetry adapted basis functions of B3  symmetry.
  14         3   3   3   3
  15         7   7   7   7
  16        10 -12 -14  16
  17        11 -13 -15  17
 Order= 1 4 3 2
 Reordered character table:
              1            2            3            4            5
     1            1            1            1            1            1
     2            4            1           -1           -1            1
     3            3            1           -1            1           -1
     4            2            1            1           -1           -1
    17 basis functions,    38 primitive gaussians,    17 cartesian basis functions
     5 alpha electrons        5 beta electrons
       nuclear repulsion energy        13.4978430192 Hartrees.
 IS=     1 IAt=     1 ISR=     1 T=0 IP=      1 IndIP=      1 IndIPD=      0 C=  5.363452D-01  0.000000D+00                             NZ=T
 IS=     1 IAt=     1 ISR=     1 T=0 IP=      2 IndIP=      2 IndIPD=      1 C=  9.894521D-01  0.000000D+00                             NZ=T
 IS=     1 IAt=     1 ISR=     1 T=0 IP=      3 IndIP=      3 IndIPD=      2 C=  1.597283D+00  0.000000D+00                             NZ=T
 IS=     1 IAt=     1 ISR=     1 T=0 IP=      4 IndIP=      4 IndIPD=      3 C=  2.079187D+00  0.000000D+00                             NZ=T
 IS=     1 IAt=     1 ISR=     1 T=0 IP=      5 IndIP=      5 IndIPD=      4 C=  1.774174D+00  0.000000D+00                             NZ=T
 IS=     1 IAt=     1 ISR=     1 T=0 IP=      6 IndIP=      6 IndIPD=      5 C=  6.125797D-01  0.000000D+00                             NZ=T
 IS=     2 IAt=     1 ISR=     2 T=1 IP=      1 IndIP=      7 IndIPD=      0 C= -3.995564D-01  1.296082D+00                             NZ=T
 IS=     2 IAt=     1 ISR=     2 T=1 IP=      2 IndIP=      8 IndIPD=      1 C= -1.841552D-01  9.937536D-01                             NZ=T
 IS=     2 IAt=     1 ISR=     2 T=1 IP=      3 IndIP=      9 IndIPD=      2 C=  5.163903D-01  4.959527D-01                             NZ=T
 IS=     3 IAt=     1 ISR=     3 T=1 IP=      1 IndIP=     10 IndIPD=      0 C=  1.876179D-01  1.541276D-01                             NZ=T
 IS=     4 IAt=     2 ISR=     1 T=0 IP=      1 IndIP=     11 IndIPD=      0 C=  2.149354D-01  0.000000D+00                             NZ=T
 IS=     4 IAt=     2 ISR=     1 T=0 IP=      2 IndIP=     12 IndIPD=      1 C=  3.645712D-01  0.000000D+00                             NZ=T
 IS=     4 IAt=     2 ISR=     1 T=0 IP=      3 IndIP=     13 IndIPD=      2 C=  4.150514D-01  0.000000D+00                             NZ=T
 IS=     5 IAt=     2 ISR=     2 T=0 IP=      1 IndIP=     14 IndIPD=      0 C=  1.813806D-01  0.000000D+00                             NZ=T
 IS=     6 IAt=     3 ISR=     1 T=0 IP=      1 IndIP=     15 IndIPD=      0 C=  2.149354D-01  0.000000D+00                             NZ=T
 IS=     6 IAt=     3 ISR=     1 T=0 IP=      2 IndIP=     16 IndIPD=      1 C=  3.645712D-01  0.000000D+00                             NZ=T
 IS=     6 IAt=     3 ISR=     1 T=0 IP=      3 IndIP=     17 IndIPD=      2 C=  4.150514D-01  0.000000D+00                             NZ=T
 IS=     7 IAt=     3 ISR=     2 T=0 IP=      1 IndIP=     18 IndIPD=      0 C=  1.813806D-01  0.000000D+00                             NZ=T
 IS=     8 IAt=     4 ISR=     1 T=0 IP=      1 IndIP=     19 IndIPD=      0 C=  2.149354D-01  0.000000D+00                             NZ=T
 IS=     8 IAt=     4 ISR=     1 T=0 IP=      2 IndIP=     20 IndIPD=      1 C=  3.645712D-01  0.000000D+00                             NZ=T
 IS=     8 IAt=     4 ISR=     1 T=0 IP=      3 IndIP=     21 IndIPD=      2 C=  4.150514D-01  0.000000D+00                             NZ=T
 IS=     9 IAt=     4 ISR=     2 T=0 IP=      1 IndIP=     22 IndIPD=      0 C=  1.813806D-01  0.000000D+00                             NZ=T
 IS=    10 IAt=     5 ISR=     1 T=0 IP=      1 IndIP=     23 IndIPD=      0 C=  2.149354D-01  0.000000D+00                             NZ=T
 IS=    10 IAt=     5 ISR=     1 T=0 IP=      2 IndIP=     24 IndIPD=      1 C=  3.645712D-01  0.000000D+00                             NZ=T
 IS=    10 IAt=     5 ISR=     1 T=0 IP=      3 IndIP=     25 IndIPD=      2 C=  4.150514D-01  0.000000D+00                             NZ=T
 IS=    11 IAt=     5 ISR=     2 T=0 IP=      1 IndIP=     26 IndIPD=      0 C=  1.813806D-01  0.000000D+00                             NZ=T
 IExCor=    0 DFT=F Ex=HF Corr=None ExCW=0 ScaHFX=  1.000000
 ScaDFX=  1.000000  1.000000  1.000000  1.000000 ScalE2=  1.000000  1.000000
 IRadAn=      0 IRanWt=     -1 IRanGd=            0 ICorTp=0 IEmpDi=  4
 NAtoms=    5 NActive=    5 NUniq=    2 SFac= 4.00D+00 NAtFMM=   60 NAOKFM=F Big=F
 Integral buffers will be    131072 words long.
 Raffenetti 1 integral format.
 Two-electron integral symmetry is turned on.
 Pair potential:
 Leave Link  301 at Fri May 29 13:54:20 2015, MaxMem=    33554432 cpu:               0.0 elap:               0.1
 (Enter /home/gauss/gdvi02/gdv/l302.exe)
 NPDir=0 NMtPBC=     1 NCelOv=     1 NCel=       1 NClECP=     1 NCelD=      1
         NCelK=      1 NCelE2=     1 NClLst=     1 CellRange=     0.0.
 One-electron integrals computed using PRISM.
 One-electron integral symmetry used in STVInt
 Entering OneElI...
 OneElI was handed    33553705 working-precision words.
 Calculate overlap and kinetic energy integrals
    NBasis =  17  MinDer = 0  MaxDer = 0
 Requested accuracy = 0.1000D-12
 ShPair: Thresh= 1.00D-13 NBox=     0 BxSize= 0.00D+00 RnKept= 3.35D+00
         NSMCal=                   66 NSMKep=                  66
 Symmetry will be used
 Overlap and Kinetic Integrals          
 Derivative Range = 0 to 2  Logicals = T F F F F F
 The Identity operator will be used
 PrsmSu:  NPrtUS=   1 ThrOK=F IAlg=1 NPAlg=1 LenDen=           0.
 Prism:   IPart=     0 DynPar=F LinDyn=F Incr=           1.
 PRISM was handed    33543425 working-precision words and    66 shell-pairs
 PRISM will use Minimum- Mop paths
 [0] accuracy = 0.10D-12   Chebyshev Delta = 0.12D-02   Critical T = 28.20   # of points =  11979


           Zone         Bra Derivative Range     Ket Derivative Range
           ==========================================================
             1                 0 to 2                   0 to 0
           ==========================================================

                             -------------------
                             The (PP|ss) Classes
 Not enough memory for any path:
 MxKBra=    9 MxKKet=    1 Memory=    33532468.
                             -------------------

       Available PRISM Paths: 29

    No. of target [m0|n0]   =    35
    No. of locations needed =    36

       T1    T2    T3    T4    T5    T6    T7    T8    T9   T10   T11   T12
      189 99999 99999 99999     0     0     0     0     0     0     0     0
   C1   C2   C3   C4   C5   C6   C7   C8   C9  C10  C11  C12  C13  C14  C15  C16
9999999999999999999999999999999999999999    0    0    0    0  230  160  160  230
    0    0    0    0    0    0    0    0    0    0    0    0  160  160  160  160

                   VR1     cost =     349
                   Bra-TRn cost =     764
                   Ket-TRn cost =       0

                   Space needed for drivers          =   12669
                   Space needed for driver formation =   22667

                   KBra   KKet   Path     Mops    Wds/S4    MaxCom 

                   C37 =       0
                   C38 =       0
 Prsmar:  LTot= 4 LBK=  2  0 KBK=     1     1 Path=29 Kost=        1221 NPerS4=         449 nW0=         164 nW1=         118 nW2=         164
          nW0X=           0 NPS4B=         156 jNext=       12699 NLeft=    33530723 jEnd=      176136 LenV=    33543425 MaxCom=         364
 Prsmar:  LTot= 4 LBK=  2  0 KBK=     3     1 Path=29 Kost=        2371 NPerS4=         515 nW0=         164 nW1=         118 nW2=         164
          nW0X=           0 NPS4B=         220 jNext=       12721 NLeft=    33530701 jEnd=      176492 LenV=    33543425 MaxCom=         318
 Prsmar:  LTot= 4 LBK=  2  0 KBK=     9     1 Path=29 Kost=        5821 NPerS4=         873 nW0=         324 nW1=         118 nW2=         324
          nW0X=           0 NPS4B=         412 jNext=       12787 NLeft=    33530635 jEnd=      176039 LenV=    33543425 MaxCom=         187

                             -------------------
                             The (Ps|ss) Classes
 Not enough memory for any path:
 MxKBra=   18 MxKKet=    1 Memory=    33540476.
                             -------------------

       Available PRISM Paths: 29

    No. of target [m0|n0]   =    20
    No. of locations needed =    21

       T1    T2    T3    T4    T5    T6    T7    T8    T9   T10   T11   T12
       96 99999 99999 99999     0     0     0     0     0     0     0     0
   C1   C2   C3   C4   C5   C6   C7   C8   C9  C10  C11  C12  C13  C14  C15  C16
9999999999999999999999999999999999999999    0    0    0    0   50   40   40   50
    0    0    0    0    0    0    0    0    0    0    0    0   40   40   40   40

                   VR1     cost =     174
                   Bra-TRn cost =      89
                   Ket-TRn cost =       0

                   Space needed for drivers          =    3584
                   Space needed for driver formation =    5442

                   KBra   KKet   Path     Mops    Wds/S4    MaxCom 

                   C37 =       0
                   C38 =       0
 Prsmar:  LTot= 3 LBK=  1  0 KBK=     1     1 Path=29 Kost=         293 NPerS4=         206 nW0=          41 nW1=          34 nW2=          41
          nW0X=           0 NPS4B=          60 jNext=        3623 NLeft=    33539799 jEnd=      167394 LenV=    33543425 MaxCom=         795
 Prsmar:  LTot= 3 LBK=  1  0 KBK=     3     1 Path=29 Kost=         769 NPerS4=         282 nW0=          63 nW1=          34 nW2=          63
          nW0X=           0 NPS4B=         112 jNext=        3724 NLeft=    33539698 jEnd=      167285 LenV=    33543425 MaxCom=         580
 Prsmar:  LTot= 3 LBK=  1  0 KBK=     6     1 Path=29 Kost=        1483 NPerS4=         426 nW0=         126 nW1=          34 nW2=         126
          nW0X=           0 NPS4B=         190 jNext=        3633 NLeft=    33539789 jEnd=      167218 LenV=    33543425 MaxCom=         384
 Prsmar:  LTot= 3 LBK=  1  0 KBK=     9     1 Path=29 Kost=        2197 NPerS4=         570 nW0=         189 nW1=          34 nW2=         189
          nW0X=           0 NPS4B=         268 jNext=        3783 NLeft=    33539639 jEnd=      167374 LenV=    33543425 MaxCom=         287
 Prsmar:  LTot= 3 LBK=  1  0 KBK=    18     1 Path=29 Kost=        4339 NPerS4=        1002 nW0=         378 nW1=          34 nW2=         378
          nW0X=           0 NPS4B=         502 jNext=        3693 NLeft=    33539729 jEnd=      167020 LenV=    33543425 MaxCom=         163

                             -------------------
                             The (ss|ss) Classes
 Not enough memory for any path:
 MxKBra=   36 MxKKet=    1 Memory=    33542426.
                             -------------------

       Available PRISM Paths: 29

    No. of target [m0|n0]   =    10
    No. of locations needed =    11

       T1    T2    T3    T4    T5    T6    T7    T8    T9   T10   T11   T12
       39 99999 99999 99999     0     0     0     0     0     0     0     0
   C1   C2   C3   C4   C5   C6   C7   C8   C9  C10  C11  C12  C13  C14  C15  C16
9999999999999999999999999999999999999999    0    0    0    0   10   10   10   10
    0    0    0    0    0    0    0    0    0    0    0    0   10   10   10   10

                   VR1     cost =      67
                   Bra-TRn cost =       9
                   Ket-TRn cost =       0

                   Space needed for drivers          =    1225
                   Space needed for driver formation =    1751

                   KBra   KKet   Path     Mops    Wds/S4    MaxCom 

                   C37 =       0
                   C38 =       0
 Prsmar:  LTot= 2 LBK=  0  0 KBK=     1     1 Path=29 Kost=          86 NPerS4=         126 nW0=          11 nW1=          11 nW2=          11
          nW0X=           0 NPS4B=          34 jNext=        1265 NLeft=    33542157 jEnd=      165066 LenV=    33543425 MaxCom=        1300
 Prsmar:  LTot= 2 LBK=  0  0 KBK=     3     1 Path=29 Kost=         262 NPerS4=         196 nW0=          33 nW1=          11 nW2=          33
          nW0X=           0 NPS4B=          80 jNext=        1341 NLeft=    33542081 jEnd=      165002 LenV=    33543425 MaxCom=         835
 Prsmar:  LTot= 2 LBK=  0  0 KBK=     9     1 Path=29 Kost=         790 NPerS4=         406 nW0=          99 nW1=          11 nW2=          99
          nW0X=           0 NPS4B=         218 jNext=        1316 NLeft=    33542106 jEnd=      164935 LenV=    33543425 MaxCom=         403
 Prsmar:  LTot= 2 LBK=  0  0 KBK=     8     1 Path=29 Kost=         702 NPerS4=         371 nW0=          88 nW1=          11 nW2=          88
          nW0X=           0 NPS4B=         195 jNext=        1340 NLeft=    33542082 jEnd=      164952 LenV=    33543425 MaxCom=         441
 Prsmar:  LTot= 2 LBK=  0  0 KBK=     6     1 Path=29 Kost=         526 NPerS4=         301 nW0=          66 nW1=          11 nW2=          66
          nW0X=           0 NPS4B=         149 jNext=        1292 NLeft=    33542130 jEnd=      165037 LenV=    33543425 MaxCom=         544
 Prsmar:  LTot= 2 LBK=  0  0 KBK=    15     1 Path=29 Kost=        1318 NPerS4=         616 nW0=         165 nW1=          11 nW2=         165
          nW0X=           0 NPS4B=         356 jNext=        1364 NLeft=    33542058 jEnd=      164605 LenV=    33543425 MaxCom=         265
 Prsmar:  LTot= 2 LBK=  0  0 KBK=    36     1 Path=29 Kost=        3166 NPerS4=        1351 nW0=         396 nW1=          11 nW2=         396
          nW0X=           0 NPS4B=         839 jNext=        1316 NLeft=    33542106 jEnd=      164788 LenV=    33543425 MaxCom=         121
 IPart=  0 NShTot=          18 NBatch=          15 AvBLen=         1.2
 PrSmSu:  NxtVal=              2.
 *** Overlap *** 
                1             2             3             4             5 
      1  0.100000D+01
      2  0.219059D+00  0.100000D+01
      3  0.000000D+00  0.000000D+00  0.100000D+01
      4  0.000000D+00  0.000000D+00  0.000000D+00  0.100000D+01
      5  0.000000D+00  0.000000D+00  0.000000D+00  0.000000D+00  0.100000D+01
      6  0.184261D+00  0.812273D+00  0.000000D+00  0.000000D+00  0.000000D+00
      7  0.000000D+00  0.000000D+00  0.569754D+00  0.000000D+00  0.000000D+00
      8  0.000000D+00  0.000000D+00  0.000000D+00  0.569754D+00  0.000000D+00
      9  0.000000D+00  0.000000D+00  0.000000D+00  0.000000D+00  0.569754D+00
     10  0.334727D-01  0.276875D+00  0.215092D+00  0.215092D+00  0.215092D+00
     11  0.927665D-01  0.478422D+00  0.153487D+00  0.153487D+00  0.153487D+00
     12  0.334727D-01  0.276875D+00 -0.215092D+00 -0.215092D+00  0.215092D+00
     13  0.927665D-01  0.478422D+00 -0.153487D+00 -0.153487D+00  0.153487D+00
     14  0.334727D-01  0.276875D+00 -0.215092D+00  0.215092D+00 -0.215092D+00
     15  0.927665D-01  0.478422D+00 -0.153487D+00  0.153487D+00 -0.153487D+00
     16  0.334727D-01  0.276875D+00  0.215092D+00 -0.215092D+00 -0.215092D+00
     17  0.927665D-01  0.478422D+00  0.153487D+00 -0.153487D+00 -0.153487D+00
                6             7             8             9            10 
      6  0.100000D+01
      7  0.000000D+00  0.100000D+01
      8  0.000000D+00  0.000000D+00  0.100000D+01
      9  0.000000D+00  0.000000D+00  0.000000D+00  0.100000D+01
     10  0.379057D+00  0.297554D+00  0.297554D+00  0.297554D+00  0.100000D+01
     11  0.706809D+00  0.335915D+00  0.335915D+00  0.335915D+00  0.658292D+00
     12  0.379057D+00 -0.297554D+00 -0.297554D+00  0.297554D+00  0.190800D-01
     13  0.706809D+00 -0.335915D+00 -0.335915D+00  0.335915D+00  0.151221D+00
     14  0.379057D+00 -0.297554D+00  0.297554D+00 -0.297554D+00  0.190800D-01
     15  0.706809D+00 -0.335915D+00  0.335915D+00 -0.335915D+00  0.151221D+00
     16  0.379057D+00  0.297554D+00 -0.297554D+00 -0.297554D+00  0.190800D-01
     17  0.706809D+00  0.335915D+00 -0.335915D+00 -0.335915D+00  0.151221D+00
               11            12            13            14            15 
     11  0.100000D+01
     12  0.151221D+00  0.100000D+01
     13  0.404974D+00  0.658292D+00  0.100000D+01
     14  0.151221D+00  0.190800D-01  0.151221D+00  0.100000D+01
     15  0.404974D+00  0.151221D+00  0.404974D+00  0.658292D+00  0.100000D+01
     16  0.151221D+00  0.190800D-01  0.151221D+00  0.190800D-01  0.151221D+00
     17  0.404974D+00  0.151221D+00  0.404974D+00  0.151221D+00  0.404974D+00
               16            17 
     16  0.100000D+01
     17  0.658292D+00  0.100000D+01
 *** Kinetic Energy *** 
                1             2             3             4             5 
      1  0.162076D+02
      2 -0.124757D+01  0.932246D+00
      3  0.000000D+00  0.000000D+00  0.217833D+01
      4  0.000000D+00  0.000000D+00  0.000000D+00  0.217833D+01
      5  0.000000D+00  0.000000D+00  0.000000D+00  0.000000D+00  0.217833D+01
      6  0.899505D-01  0.306718D+00  0.000000D+00  0.000000D+00  0.000000D+00
      7  0.000000D+00  0.000000D+00  0.376673D+00  0.000000D+00  0.000000D+00
      8  0.000000D+00  0.000000D+00  0.000000D+00  0.376673D+00  0.000000D+00
      9  0.000000D+00  0.000000D+00  0.000000D+00  0.000000D+00  0.376673D+00
     10 -0.348877D-01  0.445902D-01  0.140115D+00  0.140115D+00  0.140115D+00
     11  0.244205D-01  0.115534D+00  0.766902D-01  0.766902D-01  0.766902D-01
     12 -0.348877D-01  0.445902D-01 -0.140115D+00 -0.140115D+00  0.140115D+00
     13  0.244205D-01  0.115534D+00 -0.766902D-01 -0.766902D-01  0.766902D-01
     14 -0.348877D-01  0.445902D-01 -0.140115D+00  0.140115D+00 -0.140115D+00
     15  0.244205D-01  0.115534D+00 -0.766902D-01  0.766902D-01 -0.766902D-01
     16 -0.348877D-01  0.445902D-01  0.140115D+00 -0.140115D+00 -0.140115D+00
     17  0.244205D-01  0.115534D+00  0.766902D-01 -0.766902D-01 -0.766902D-01
                6             7             8             9            10 
      6  0.253072D+00
      7  0.000000D+00  0.421786D+00
      8  0.000000D+00  0.000000D+00  0.421786D+00
      9  0.000000D+00  0.000000D+00  0.000000D+00  0.421786D+00
     10  0.955651D-01  0.156413D+00  0.156413D+00  0.156413D+00  0.139568D+01
     11  0.134440D+00  0.119290D+00  0.119290D+00  0.119290D+00  0.259735D+00
     12  0.955651D-01 -0.156413D+00 -0.156413D+00  0.156413D+00 -0.279703D-01
     13  0.134440D+00 -0.119290D+00 -0.119290D+00  0.119290D+00  0.111923D-02
     14  0.955651D-01 -0.156413D+00  0.156413D+00 -0.156413D+00 -0.279703D-01
     15  0.134440D+00 -0.119290D+00  0.119290D+00 -0.119290D+00  0.111923D-02
     16  0.955651D-01  0.156413D+00 -0.156413D+00 -0.156413D+00 -0.279703D-01
     17  0.134440D+00  0.119290D+00 -0.119290D+00 -0.119290D+00  0.111923D-02
               11            12            13            14            15 
     11  0.241917D+00
     12  0.111923D-02  0.139568D+01
     13  0.389312D-01  0.259735D+00  0.241917D+00
     14  0.111923D-02 -0.279703D-01  0.111923D-02  0.139568D+01
     15  0.389312D-01  0.111923D-02  0.389312D-01  0.259735D+00  0.241917D+00
     16  0.111923D-02 -0.279703D-01  0.111923D-02 -0.279703D-01  0.111923D-02
     17  0.389312D-01  0.111923D-02  0.389312D-01  0.111923D-02  0.389312D-01
               16            17 
     16  0.139568D+01
     17  0.259735D+00  0.241917D+00
 Entering OneElI...
 OneElI was handed    33553705 working-precision words.
 Calculate potential energy integrals
    NBasis =  17  MinDer = 0  MaxDer = 0
 Requested accuracy = 0.1000D-12
 ShPair: Thresh= 1.00D-13 NBox=     0 BxSize= 0.00D+00 RnKept= 3.35D+00
         NSMCal=                   66 NSMKep=                  66
 Symmetry will be used
 Nuclear Attraction Integrals           
 The Coulomb operator will be used
 PrsmSu:  NPrtUS=   1 ThrOK=F IAlg=1 NPAlg=1 LenDen=           0.
 Prism:   IPart=     0 DynPar=F LinDyn=F Incr=           3.
 PRISM was handed    33543117 working-precision words and    66 shell-pairs
 PRISM will use Minimum- Mop paths
 [0] accuracy = 0.10D-12   Chebyshev Delta = 0.12D-02   Critical T = 28.20   # of points =  11979


           Zone         Bra Derivative Range     Ket Derivative Range
           ==========================================================
             1                 0 to 0                   0 to 0
           ==========================================================

                             -------------------
                             The (PP|ss) Classes
 Not enough memory for any path:
 MxKBra=    9 MxKKet=    1 Memory=    33445296.
                             -------------------

       Available PRISM Paths:  1  4  5 29

    No. of target [m0|n0]   =    10
    No. of locations needed =    11

       T1    T2    T3    T4    T5    T6    T7    T8    T9   T10   T11   T12
       39   123 99999 99999   102   111   102   111     0     0     0     0
   C1   C2   C3   C4   C5   C6   C7   C8   C9  C10  C11  C12  C13  C14  C15  C16
   17    0    0    0   23   10   23   23   16   16   16   16   16   16   16   16
  -17    0    0    0  -23  -10  -23  -23  -16  -16  -16  -16  -16  -16  -16  -16

                   VR1     cost =      67
                   Bra-TRn cost =      36
                   Ket-TRn cost =       0

                   Space needed for drivers          =    3103
                   Space needed for driver formation =    3537

                   KBra   KKet   Path     Mops    Wds/S4    MaxCom 

                   C37 =      40
                   C38 =      92
 Prsmar:  LTot= 2 LBK=  2  0 KBK=     1     1 Path=29 Kost=         171 NPerS4=         133 nW0=          17 nW1=          17 nW2=          17
          nW0X=          16 NPS4B=          47 jNext=       98965 NLeft=    33444133 jEnd=      262689 LenV=    33543117 MaxCom=        1231
 Prsmar:  LTot= 2 LBK=  2  0 KBK=     3     1 Path=29 Kost=         339 NPerS4=         215 nW0=          33 nW1=          17 nW2=          33
          nW0X=          16 NPS4B=          95 jNext=       98971 NLeft=    33444127 jEnd=      262802 LenV=    33543117 MaxCom=         762
 Prsmar:  LTot= 2 LBK=  2  0 KBK=     9     1 Path= 1 Kost=         450 NPerS4=         342 nW0=          27 nW1=          24 nW2=          27
          nW0X=          16 NPS4B=         228 jNext=       99097 NLeft=    33444001 jEnd=      262916 LenV=    33543117 MaxCom=         479

                             -------------------
                             The (Ps|ss) Classes
 Not enough memory for any path:
 MxKBra=   18 MxKKet=    1 Memory=    33446875.
                             -------------------

       Available PRISM Paths:  1  4  5 29

    No. of target [m0|n0]   =     4
    No. of locations needed =     4

       T1    T2    T3    T4    T5    T6    T7    T8    T9   T10   T11   T12
        7    15 99999 99999    12    12    12    12     0     0     0     0
   C1   C2   C3   C4   C5   C6   C7   C8   C9  C10  C11  C12  C13  C14  C15  C16
    4    0    0    0    5    4    5    5    4    4    4    4    4    4    4    4
   -4    0    0    0   -5   -4   -5   -5   -4   -4   -4   -4   -4   -4   -4   -4

                   VR1     cost =      15
                   Bra-TRn cost =       0
                   Ket-TRn cost =       0

                   Space needed for drivers          =     676
                   Space needed for driver formation =     725

                   KBra   KKet   Path     Mops    Wds/S4    MaxCom 

                   C37 =      16
                   C38 =      20
 Prsmar:  LTot= 1 LBK=  1  0 KBK=     1     1 Path=29 Kost=          31 NPerS4=          74 nW0=           4 nW1=           4 nW2=           4
          nW0X=           4 NPS4B=          26 jNext=       96539 NLeft=    33446571 jEnd=      260376 LenV=    33543117 MaxCom=        2214
 Prsmar:  LTot= 1 LBK=  1  0 KBK=     3     1 Path= 1 Kost=          53 NPerS4=         102 nW0=           6 nW1=           6 nW2=           6
          nW0X=           4 NPS4B=          48 jNext=       96608 NLeft=    33446502 jEnd=      260421 LenV=    33543117 MaxCom=        1606
 Prsmar:  LTot= 1 LBK=  1  0 KBK=     6     1 Path= 1 Kost=          65 NPerS4=         144 nW0=          12 nW1=           6 nW2=          12
          nW0X=           4 NPS4B=          75 jNext=       96553 NLeft=    33446557 jEnd=      260282 LenV=    33543117 MaxCom=        1137
 Prsmar:  LTot= 1 LBK=  1  0 KBK=     9     1 Path= 1 Kost=          77 NPerS4=         186 nW0=          18 nW1=           6 nW2=          18
          nW0X=           4 NPS4B=         102 jNext=       96643 NLeft=    33446467 jEnd=      260324 LenV=    33543117 MaxCom=         880
 Prsmar:  LTot= 1 LBK=  1  0 KBK=    18     1 Path= 1 Kost=         113 NPerS4=         312 nW0=          36 nW1=           6 nW2=          36
          nW0X=           4 NPS4B=         183 jNext=       96589 NLeft=    33446521 jEnd=      260390 LenV=    33543117 MaxCom=         525

                             -------------------
                             The (ss|ss) Classes
 Not enough memory for any path:
 MxKBra=   36 MxKKet=    1 Memory=    33495113.
                             -------------------

       Available PRISM Paths:  1  4  5 29

    No. of target [m0|n0]   =     1
    No. of locations needed =     1

       T1    T2    T3    T4    T5    T6    T7    T8    T9   T10   T11   T12
        0     0 99999 99999     0     0     0     0     0     0     0     0
   C1   C2   C3   C4   C5   C6   C7   C8   C9  C10  C11  C12  C13  C14  C15  C16
    1    0    0    0    1    1    1    1    1    1    1    1    1    1    1    1
   -1    0    0    0   -1   -1   -1   -1   -1   -1   -1   -1   -1   -1   -1   -1

                   VR1     cost =       0
                   Bra-TRn cost =       0
                   Ket-TRn cost =       0

                   Space needed for drivers          =     162
                   Space needed for driver formation =     173

                   KBra   KKet   Path     Mops    Wds/S4    MaxCom 

                   C37 =       4
                   C38 =       4
 Prsmar:  LTot= 0 LBK=  0  0 KBK=     1     1 Path= 1 Kost=           4 NPerS4=          52 nW0=           1 nW1=           1 nW2=           1
          nW0X=           1 NPS4B=          22 jNext=       48102 NLeft=    33495011 jEnd=      211903 LenV=    33543117 MaxCom=        3150
 Prsmar:  LTot= 0 LBK=  0  0 KBK=     3     1 Path= 1 Kost=           6 NPerS4=          70 nW0=           3 nW1=           1 nW2=           3
          nW0X=           1 NPS4B=          34 jNext=       48102 NLeft=    33495011 jEnd=      211903 LenV=    33543117 MaxCom=        2340
 Prsmar:  LTot= 0 LBK=  0  0 KBK=     9     1 Path= 1 Kost=          12 NPerS4=         124 nW0=           9 nW1=           1 nW2=           9
          nW0X=           1 NPS4B=          70 jNext=       48101 NLeft=    33495012 jEnd=      211906 LenV=    33543117 MaxCom=        1321
 Prsmar:  LTot= 0 LBK=  0  0 KBK=     8     1 Path= 1 Kost=          11 NPerS4=         115 nW0=           8 nW1=           1 nW2=           8
          nW0X=           1 NPS4B=          64 jNext=       48101 NLeft=    33495012 jEnd=      211862 LenV=    33543117 MaxCom=        1424
 Prsmar:  LTot= 0 LBK=  0  0 KBK=     6     1 Path= 1 Kost=           9 NPerS4=          97 nW0=           6 nW1=           1 nW2=           6
          nW0X=           1 NPS4B=          52 jNext=       48101 NLeft=    33495012 jEnd=      211935 LenV=    33543117 MaxCom=        1689
 Prsmar:  LTot= 0 LBK=  0  0 KBK=    14     1 Path= 1 Kost=          17 NPerS4=         169 nW0=          14 nW1=           1 nW2=          14
          nW0X=           1 NPS4B=         100 jNext=       48101 NLeft=    33495012 jEnd=      211863 LenV=    33543117 MaxCom=         969
 Prsmar:  LTot= 0 LBK=  0  0 KBK=    36     1 Path= 1 Kost=          39 NPerS4=         367 nW0=          36 nW1=           1 nW2=          36
          nW0X=           1 NPS4B=         232 jNext=       48101 NLeft=    33495012 jEnd=      211784 LenV=    33543117 MaxCom=         446
 IPart=  0 NShTot=          90 NBatch=          18 AvBLen=         5.0
 PrSmSu:  NxtVal=              4.
 ***** Potential Energy ***** 
                1             2             3             4             5 
      1  0.361037D+02
      2  0.284024D+01  0.766608D+01
      3  0.000000D+00  0.000000D+00  0.818415D+01
      4  0.000000D+00  0.000000D+00  0.000000D+00  0.818415D+01
      5  0.000000D+00  0.000000D+00  0.000000D+00  0.000000D+00  0.818415D+01
      6  0.361237D+01  0.569551D+01  0.000000D+00  0.000000D+00  0.000000D+00
      7  0.000000D+00  0.000000D+00  0.345277D+01  0.000000D+00  0.000000D+00
      8  0.000000D+00  0.000000D+00  0.000000D+00  0.345277D+01  0.000000D+00
      9  0.000000D+00  0.000000D+00  0.000000D+00  0.000000D+00  0.345277D+01
     10  0.608662D+00  0.182265D+01  0.135366D+01  0.135366D+01  0.135366D+01
     11  0.179935D+01  0.323735D+01  0.910524D+00  0.910524D+00  0.910524D+00
     12  0.608662D+00  0.182265D+01 -0.135366D+01 -0.135366D+01  0.135366D+01
     13  0.179935D+01  0.323735D+01 -0.910524D+00 -0.910524D+00  0.910524D+00
     14  0.608662D+00  0.182265D+01 -0.135366D+01  0.135366D+01 -0.135366D+01
     15  0.179935D+01  0.323735D+01 -0.910524D+00  0.910524D+00 -0.910524D+00
     16  0.608662D+00  0.182265D+01  0.135366D+01 -0.135366D+01 -0.135366D+01
     17  0.179935D+01  0.323735D+01  0.910524D+00 -0.910524D+00 -0.910524D+00
                6             7             8             9            10 
      6  0.570399D+01
      7  0.000000D+00  0.418149D+01
      8  0.000000D+00  0.000000D+00  0.418149D+01
      9  0.000000D+00  0.000000D+00  0.000000D+00  0.418149D+01
     10  0.211198D+01  0.147890D+01  0.147890D+01  0.147890D+01  0.547370D+01
     11  0.367760D+01  0.133313D+01  0.133313D+01  0.133313D+01  0.324246D+01
     12  0.211198D+01 -0.147890D+01 -0.147890D+01  0.147890D+01  0.126589D+00
     13  0.367760D+01 -0.133313D+01 -0.133313D+01  0.133313D+01  0.853567D+00
     14  0.211198D+01 -0.147890D+01  0.147890D+01 -0.147890D+01  0.126589D+00
     15  0.367760D+01 -0.133313D+01  0.133313D+01 -0.133313D+01  0.853567D+00
     16  0.211198D+01  0.147890D+01 -0.147890D+01 -0.147890D+01  0.126589D+00
     17  0.367760D+01  0.133313D+01 -0.133313D+01 -0.133313D+01  0.853567D+00
               11            12            13            14            15 
     11  0.416541D+01
     12  0.853567D+00  0.547370D+01
     13  0.202237D+01  0.324246D+01  0.416541D+01
     14  0.853567D+00  0.126589D+00  0.853567D+00  0.547370D+01
     15  0.202237D+01  0.853567D+00  0.202237D+01  0.324246D+01  0.416541D+01
     16  0.853567D+00  0.126589D+00  0.853567D+00  0.126589D+00  0.853567D+00
     17  0.202237D+01  0.853567D+00  0.202237D+01  0.853567D+00  0.202237D+01
               16            17 
     16  0.547370D+01
     17  0.324246D+01  0.416541D+01
 ****** Core Hamiltonian ****** 
                1             2             3             4             5 
      1 -0.198961D+02
      2 -0.408781D+01 -0.673384D+01
      3  0.000000D+00  0.000000D+00 -0.600582D+01
      4  0.000000D+00  0.000000D+00  0.000000D+00 -0.600582D+01
      5  0.000000D+00  0.000000D+00  0.000000D+00  0.000000D+00 -0.600582D+01
      6 -0.352242D+01 -0.538879D+01  0.000000D+00  0.000000D+00  0.000000D+00
      7  0.000000D+00  0.000000D+00 -0.307609D+01  0.000000D+00  0.000000D+00
      8  0.000000D+00  0.000000D+00  0.000000D+00 -0.307609D+01  0.000000D+00
      9  0.000000D+00  0.000000D+00  0.000000D+00  0.000000D+00 -0.307609D+01
     10 -0.643550D+00 -0.177806D+01 -0.121354D+01 -0.121354D+01 -0.121354D+01
     11 -0.177493D+01 -0.312181D+01 -0.833833D+00 -0.833833D+00 -0.833833D+00
     12 -0.643550D+00 -0.177806D+01  0.121354D+01  0.121354D+01 -0.121354D+01
     13 -0.177493D+01 -0.312181D+01  0.833833D+00  0.833833D+00 -0.833833D+00
     14 -0.643550D+00 -0.177806D+01  0.121354D+01 -0.121354D+01  0.121354D+01
     15 -0.177493D+01 -0.312181D+01  0.833833D+00 -0.833833D+00  0.833833D+00
     16 -0.643550D+00 -0.177806D+01 -0.121354D+01  0.121354D+01  0.121354D+01
     17 -0.177493D+01 -0.312181D+01 -0.833833D+00  0.833833D+00  0.833833D+00
                6             7             8             9            10 
      6 -0.545092D+01
      7  0.000000D+00 -0.375970D+01
      8  0.000000D+00  0.000000D+00 -0.375970D+01
      9  0.000000D+00  0.000000D+00  0.000000D+00 -0.375970D+01
     10 -0.201641D+01 -0.132249D+01 -0.132249D+01 -0.132249D+01 -0.407802D+01
     11 -0.354316D+01 -0.121384D+01 -0.121384D+01 -0.121384D+01 -0.298273D+01
     12 -0.201641D+01  0.132249D+01  0.132249D+01 -0.132249D+01 -0.154560D+00
     13 -0.354316D+01  0.121384D+01  0.121384D+01 -0.121384D+01 -0.852448D+00
     14 -0.201641D+01  0.132249D+01 -0.132249D+01  0.132249D+01 -0.154560D+00
     15 -0.354316D+01  0.121384D+01 -0.121384D+01  0.121384D+01 -0.852448D+00
     16 -0.201641D+01 -0.132249D+01  0.132249D+01  0.132249D+01 -0.154560D+00
     17 -0.354316D+01 -0.121384D+01  0.121384D+01  0.121384D+01 -0.852448D+00
               11            12            13            14            15 
     11 -0.392350D+01
     12 -0.852448D+00 -0.407802D+01
     13 -0.198343D+01 -0.298273D+01 -0.392350D+01
     14 -0.852448D+00 -0.154560D+00 -0.852448D+00 -0.407802D+01
     15 -0.198343D+01 -0.852448D+00 -0.198343D+01 -0.298273D+01 -0.392350D+01
     16 -0.852448D+00 -0.154560D+00 -0.852448D+00 -0.154560D+00 -0.852448D+00
     17 -0.198343D+01 -0.852448D+00 -0.198343D+01 -0.852448D+00 -0.198343D+01
               16            17 
     16 -0.407802D+01
     17 -0.298273D+01 -0.392350D+01
 SSO for IR=          1
                 1             2             3             4             5 
      1   0.100000D+01  0.219059D+00  0.184261D+00  0.669453D-01  0.185533D+00
      2   0.219059D+00  0.100000D+01  0.812273D+00  0.553751D+00  0.956844D+00
      3   0.184261D+00  0.812273D+00  0.100000D+01  0.758113D+00  0.141362D+01
      4   0.669453D-01  0.553751D+00  0.758113D+00  0.105724D+01  0.111196D+01
      5   0.185533D+00  0.956844D+00  0.141362D+01  0.111196D+01  0.221492D+01
 SVDSVc IOpt=   1 NormSV=T IR=1
 SVDSVc V= 4.39D+00 1.00D+00 4.75D-01 3.87D-01 2.02D-02
 V for IR=          1
                 1             2             3             4             5 
      1   0.952561D-01  0.965254D+00 -0.242215D+00  0.158476D-01 -0.170849D-01
      2   0.377166D+00  0.159618D+00  0.822410D+00  0.265530D+00 -0.292238D+00
      3   0.470164D+00  0.399424D-02  0.131576D+00 -0.127590D+00  0.863330D+00
      4   0.399739D+00 -0.159094D+00 -0.422189D+00  0.797147D+00 -0.348073D-01
      5   0.683978D+00 -0.132213D+00 -0.263473D+00 -0.526802D+00 -0.409579D+00
 SSO for IR=          2
                 1             2             3             4 
      1   0.100000D+01  0.569754D+00  0.430184D+00  0.306974D+00
      2   0.569754D+00  0.100000D+01  0.595108D+00  0.671830D+00
      3   0.430184D+00  0.595108D+00  0.980920D+00  0.507071D+00
      4   0.306974D+00  0.671830D+00  0.507071D+00  0.595026D+00
 SVDSVc IOpt=   1 NormSV=T IR=2
 SVDSVc V= 2.47D+00 6.18D-01 4.17D-01 7.35D-02
 V for IR=          2
                 1             2             3             4 
      1   0.465551D+00  0.857000D+00  0.152782D+00  0.159596D+00
      2   0.583094D+00 -0.109217D+00 -0.555370D+00 -0.582784D+00
      3   0.512940D+00 -0.388384D+00  0.753982D+00 -0.132517D+00
      4   0.424449D+00 -0.320593D+00 -0.315804D+00  0.785704D+00
 SSO for IR=          3
                 1             2             3             4 
      1   0.100000D+01  0.569754D+00  0.430184D+00  0.306974D+00
      2   0.569754D+00  0.100000D+01  0.595108D+00  0.671830D+00
      3   0.430184D+00  0.595108D+00  0.980920D+00  0.507071D+00
      4   0.306974D+00  0.671830D+00  0.507071D+00  0.595026D+00
 SVDSVc IOpt=   1 NormSV=T IR=3
 SVDSVc V= 2.47D+00 6.18D-01 4.17D-01 7.35D-02
 V for IR=          3
                 1             2             3             4 
      1   0.465551D+00  0.857000D+00  0.152782D+00  0.159596D+00
      2   0.583094D+00 -0.109217D+00 -0.555370D+00 -0.582784D+00
      3   0.512940D+00 -0.388384D+00  0.753982D+00 -0.132517D+00
      4   0.424449D+00 -0.320593D+00 -0.315804D+00  0.785704D+00
 SSO for IR=          4
                 1             2             3             4 
      1   0.100000D+01  0.569754D+00  0.430184D+00  0.306974D+00
      2   0.569754D+00  0.100000D+01  0.595108D+00  0.671830D+00
      3   0.430184D+00  0.595108D+00  0.980920D+00  0.507071D+00
      4   0.306974D+00  0.671830D+00  0.507071D+00  0.595026D+00
 SVDSVc IOpt=   1 NormSV=T IR=4
 SVDSVc V= 2.47D+00 6.18D-01 4.17D-01 7.35D-02
 V for IR=          4
                 1             2             3             4 
      1   0.465551D+00  0.857000D+00  0.152782D+00  0.159596D+00
      2   0.583094D+00 -0.109217D+00 -0.555370D+00 -0.582784D+00
      3   0.512940D+00 -0.388384D+00  0.753982D+00 -0.132517D+00
      4   0.424449D+00 -0.320593D+00 -0.315804D+00  0.785704D+00
 Vt*S*V: 
                1             2             3             4             5 
      1  0.100000D+01
      2  0.000000D+00  0.100000D+01
      3  0.000000D+00  0.000000D+00  0.100000D+01
      4  0.000000D+00  0.000000D+00  0.000000D+00  0.100000D+01
      5  0.000000D+00  0.000000D+00  0.000000D+00  0.000000D+00  0.100000D+01
      6  0.000000D+00  0.000000D+00  0.000000D+00  0.000000D+00  0.000000D+00
      7  0.000000D+00  0.000000D+00  0.000000D+00  0.000000D+00  0.000000D+00
      8  0.000000D+00  0.000000D+00  0.000000D+00  0.000000D+00  0.000000D+00
      9  0.000000D+00  0.000000D+00  0.000000D+00  0.000000D+00  0.000000D+00
     10  0.000000D+00  0.000000D+00  0.000000D+00  0.000000D+00  0.000000D+00
     11  0.000000D+00  0.000000D+00  0.000000D+00  0.000000D+00  0.000000D+00
     12  0.000000D+00  0.000000D+00  0.000000D+00  0.000000D+00  0.000000D+00
     13  0.000000D+00  0.000000D+00  0.000000D+00  0.000000D+00  0.000000D+00
     14  0.000000D+00  0.000000D+00  0.000000D+00  0.000000D+00  0.000000D+00
     15  0.000000D+00  0.000000D+00  0.000000D+00  0.000000D+00  0.000000D+00
     16  0.000000D+00  0.000000D+00  0.000000D+00  0.000000D+00  0.000000D+00
     17  0.000000D+00  0.000000D+00  0.000000D+00  0.000000D+00  0.000000D+00
                6             7             8             9            10 
      6  0.100000D+01
      7  0.000000D+00  0.100000D+01
      8  0.000000D+00  0.000000D+00  0.100000D+01
      9  0.000000D+00  0.000000D+00  0.000000D+00  0.100000D+01
     10  0.000000D+00  0.000000D+00  0.000000D+00  0.000000D+00  0.100000D+01
     11  0.000000D+00  0.000000D+00  0.000000D+00  0.000000D+00  0.000000D+00
     12  0.000000D+00  0.000000D+00  0.000000D+00  0.000000D+00  0.000000D+00
     13  0.000000D+00  0.000000D+00  0.000000D+00  0.000000D+00  0.000000D+00
     14  0.000000D+00  0.000000D+00  0.000000D+00  0.000000D+00  0.000000D+00
     15  0.000000D+00  0.000000D+00  0.000000D+00  0.000000D+00  0.000000D+00
     16  0.000000D+00  0.000000D+00  0.000000D+00  0.000000D+00  0.000000D+00
     17  0.000000D+00  0.000000D+00  0.000000D+00  0.000000D+00  0.000000D+00
               11            12            13            14            15 
     11  0.100000D+01
     12  0.000000D+00  0.100000D+01
     13  0.000000D+00  0.000000D+00  0.100000D+01
     14  0.000000D+00  0.000000D+00  0.000000D+00  0.100000D+01
     15  0.000000D+00  0.000000D+00  0.000000D+00  0.000000D+00  0.100000D+01
     16  0.000000D+00  0.000000D+00  0.000000D+00  0.000000D+00  0.000000D+00
     17  0.000000D+00  0.000000D+00  0.000000D+00  0.000000D+00  0.000000D+00
               16            17 
     16  0.100000D+01
     17  0.000000D+00  0.100000D+01
 TstOVc:  Largest diagonal error= 2.66D-15 IB=1 I=    5.
 TstOVc:  Largest same sym error= 2.34D-15 IB=1 I=    5 J=    4.
 TstOVc:  Largest diff sym error= 7.77D-16 IB=4 JB=2 I=   17 J=    9.
 Orthogonalized basis functions: 
                 1             2             3             4             5 
      1   0.454634D-01  0.964993D+00 -0.351582D+00  0.254800D-01 -0.120249D+00
      2   0.180012D+00  0.159575D+00  0.119375D+01  0.426922D+00 -0.205686D+01
      3   0.000000D+00  0.000000D+00  0.000000D+00  0.000000D+00  0.000000D+00
      4   0.000000D+00  0.000000D+00  0.000000D+00  0.000000D+00  0.000000D+00
      5   0.000000D+00  0.000000D+00  0.000000D+00  0.000000D+00  0.000000D+00
      6   0.224398D+00  0.399317D-02  0.190986D+00 -0.205140D+00  0.607638D+01
      7   0.000000D+00  0.000000D+00  0.000000D+00  0.000000D+00  0.000000D+00
      8   0.000000D+00  0.000000D+00  0.000000D+00  0.000000D+00  0.000000D+00
      9   0.000000D+00  0.000000D+00  0.000000D+00  0.000000D+00  0.000000D+00
     10   0.953928D-01 -0.795253D-01 -0.306409D+00  0.640832D+00 -0.122492D+00
     11   0.163223D+00 -0.660888D-01 -0.191219D+00 -0.423500D+00 -0.144137D+01
     12   0.953928D-01 -0.795253D-01 -0.306409D+00  0.640832D+00 -0.122492D+00
     13   0.163223D+00 -0.660888D-01 -0.191219D+00 -0.423500D+00 -0.144137D+01
     14   0.953928D-01 -0.795253D-01 -0.306409D+00  0.640832D+00 -0.122492D+00
     15   0.163223D+00 -0.660888D-01 -0.191219D+00 -0.423500D+00 -0.144137D+01
     16   0.953928D-01 -0.795253D-01 -0.306409D+00  0.640832D+00 -0.122492D+00
     17   0.163223D+00 -0.660888D-01 -0.191219D+00 -0.423500D+00 -0.144137D+01
                 6             7             8             9            10 
      1   0.000000D+00  0.000000D+00  0.000000D+00  0.000000D+00  0.000000D+00
      2   0.000000D+00  0.000000D+00  0.000000D+00  0.000000D+00  0.000000D+00
      3   0.000000D+00  0.000000D+00  0.000000D+00  0.000000D+00  0.000000D+00
      4   0.000000D+00  0.000000D+00  0.000000D+00  0.000000D+00  0.296376D+00
      5   0.296376D+00  0.109050D+01  0.236493D+00  0.588532D+00  0.000000D+00
      6   0.000000D+00  0.000000D+00  0.000000D+00  0.000000D+00  0.000000D+00
      7   0.000000D+00  0.000000D+00  0.000000D+00  0.000000D+00  0.000000D+00
      8   0.000000D+00  0.000000D+00  0.000000D+00  0.000000D+00  0.371205D+00
      9   0.371205D+00 -0.138975D+00 -0.859662D+00 -0.214910D+01  0.000000D+00
     10   0.163272D+00 -0.247103D+00  0.583548D+00 -0.244337D+00  0.163272D+00
     11   0.135105D+00 -0.203972D+00 -0.244418D+00  0.144869D+01  0.135105D+00
     12   0.163272D+00 -0.247103D+00  0.583548D+00 -0.244337D+00 -0.163272D+00
     13   0.135105D+00 -0.203972D+00 -0.244418D+00  0.144869D+01 -0.135105D+00
     14  -0.163272D+00  0.247103D+00 -0.583548D+00  0.244337D+00  0.163272D+00
     15  -0.135105D+00  0.203972D+00  0.244418D+00 -0.144869D+01  0.135105D+00
     16  -0.163272D+00  0.247103D+00 -0.583548D+00  0.244337D+00 -0.163272D+00
     17  -0.135105D+00  0.203972D+00  0.244418D+00 -0.144869D+01 -0.135105D+00
                11            12            13            14            15 
      1   0.000000D+00  0.000000D+00  0.000000D+00  0.000000D+00  0.000000D+00
      2   0.000000D+00  0.000000D+00  0.000000D+00  0.000000D+00  0.000000D+00
      3   0.000000D+00  0.000000D+00  0.000000D+00  0.296376D+00  0.109050D+01
      4   0.109050D+01  0.236493D+00  0.588532D+00  0.000000D+00  0.000000D+00
      5   0.000000D+00  0.000000D+00  0.000000D+00  0.000000D+00  0.000000D+00
      6   0.000000D+00  0.000000D+00  0.000000D+00  0.000000D+00  0.000000D+00
      7   0.000000D+00  0.000000D+00  0.000000D+00  0.371205D+00 -0.138975D+00
      8  -0.138975D+00 -0.859662D+00 -0.214910D+01  0.000000D+00  0.000000D+00
      9   0.000000D+00  0.000000D+00  0.000000D+00  0.000000D+00  0.000000D+00
     10  -0.247103D+00  0.583548D+00 -0.244337D+00  0.163272D+00 -0.247103D+00
     11  -0.203972D+00 -0.244418D+00  0.144869D+01  0.135105D+00 -0.203972D+00
     12   0.247103D+00 -0.583548D+00  0.244337D+00 -0.163272D+00  0.247103D+00
     13   0.203972D+00  0.244418D+00 -0.144869D+01 -0.135105D+00  0.203972D+00
     14  -0.247103D+00  0.583548D+00 -0.244337D+00 -0.163272D+00  0.247103D+00
     15  -0.203972D+00 -0.244418D+00  0.144869D+01 -0.135105D+00  0.203972D+00
     16   0.247103D+00 -0.583548D+00  0.244337D+00  0.163272D+00 -0.247103D+00
     17   0.203972D+00  0.244418D+00 -0.144869D+01  0.135105D+00 -0.203972D+00
                16            17 
      1   0.000000D+00  0.000000D+00
      2   0.000000D+00  0.000000D+00
      3   0.236493D+00  0.588532D+00
      4   0.000000D+00  0.000000D+00
      5   0.000000D+00  0.000000D+00
      6   0.000000D+00  0.000000D+00
      7  -0.859662D+00 -0.214910D+01
      8   0.000000D+00  0.000000D+00
      9   0.000000D+00  0.000000D+00
     10   0.583548D+00 -0.244337D+00
     11  -0.244418D+00  0.144869D+01
     12  -0.583548D+00  0.244337D+00
     13   0.244418D+00 -0.144869D+01
     14  -0.583548D+00  0.244337D+00
     15   0.244418D+00 -0.144869D+01
     16   0.583548D+00 -0.244337D+00
     17  -0.244418D+00  0.144869D+01
 NBasis=    17 RedAO= T EigKep=  2.02D-02  NBF=     5     4     4     4
 NBsUse=    17 1.00D-06 EigRej= -1.00D+00 NBFU=     5     4     4     4
 Leave Link  302 at Fri May 29 13:54:21 2015, MaxMem=    33554432 cpu:               0.1 elap:               0.1
 (Enter /home/gauss/gdvi02/gdv/l303.exe)
 GetPCM: File not found, return IValue=0.
 DipDrv:  MaxL=1.
 MemDpI: Int=      800000 Cav=           0 CFW=           0 Tot=      800000
 DipPsm:  J= 1 NJ= 4 MaxL=1 MMat= 4 MaxMat= 4.
 DipInt: DoE/N= T F RetVal/Mat= F T Init=T NMatP=  4 IDeriv=0 Min/MaxMlt=  0  1
 Entering OneElI...
 OneElI was handed    33553819 working-precision words.
 Multipole integrals L=0 to 1 MinM= 0 MaxM= 3.
 Requested accuracy = 0.1000D-12
 ShPair: Thresh= 1.00D-13 NBox=     0 BxSize= 0.00D+00 RnKept= 3.35D+00
         NSMCal=                   66 NSMKep=                  66
 Multipole Integrals                    
 The Identity operator will be used
 PrsmSu:  NPrtUS=   1 ThrOK=F IAlg=1 NPAlg=1 LenDen=           0.
 Prism:   IPart=     0 DynPar=F LinDyn=F Incr=           1.
 PRISM was handed    33545458 working-precision words and    66 shell-pairs
 PRISM will use Minimum- Mop paths
 [0] accuracy = 0.10D-12   Chebyshev Delta = 0.12D-02   Critical T = 28.20   # of points =  11979


           Zone         Bra Derivative Range     Ket Derivative Range
           ==========================================================
             1                 0 to 0                   0 to 0
           ==========================================================

                             -------------------
                             The (PP|ss) Classes
 Not enough memory for any path:
 MxKBra=    9 MxKKet=    1 Memory=    33542262.
                             -------------------

       Available PRISM Paths: 29

    No. of target [m0|n0]   =    20
    No. of locations needed =    21

       T1    T2    T3    T4    T5    T6    T7    T8    T9   T10   T11   T12
       96 99999 99999 99999     0     0     0     0     0     0     0     0
   C1   C2   C3   C4   C5   C6   C7   C8   C9  C10  C11  C12  C13  C14  C15  C16
9999999999999999999999999999999999999999    0    0    0    0   92   64   64   92
    0    0    0    0    0    0    0    0    0    0    0    0   64   64   64   64

                   VR1     cost =     174
                   Bra-TRn cost =     348
                   Ket-TRn cost =       0

                   Space needed for drivers          =    3945
                   Space needed for driver formation =    6388

                   KBra   KKet   Path     Mops    Wds/S4    MaxCom 

                   C37 =       0
                   C38 =       0
 Prsmar:  LTot= 3 LBK=  2  0 KBK=     1     1 Path=29 Kost=         545 NPerS4=         426 nW0=          65 nW1=          42 nW2=          65
          nW0X=           0 NPS4B=          75 jNext=        3967 NLeft=    33541488 jEnd=      167552 LenV=    33545458 MaxCom=         384
 Prsmar:  LTot= 3 LBK=  2  0 KBK=     3     1 Path=29 Kost=        1023 NPerS4=         476 nW0=          65 nW1=          42 nW2=          65
          nW0X=           0 NPS4B=         123 jNext=        3973 NLeft=    33541482 jEnd=      167718 LenV=    33545458 MaxCom=         344
 Prsmar:  LTot= 3 LBK=  2  0 KBK=     9     1 Path=29 Kost=        2457 NPerS4=         750 nW0=         189 nW1=          42 nW2=         189
          nW0X=           0 NPS4B=         267 jNext=        3991 NLeft=    33541464 jEnd=      167492 LenV=    33545458 MaxCom=         218

                             -------------------
                             The (Ps|ss) Classes
 Not enough memory for any path:
 MxKBra=   18 MxKKet=    1 Memory=    33544540.
                             -------------------

       Available PRISM Paths: 29

    No. of target [m0|n0]   =    10
    No. of locations needed =    11

       T1    T2    T3    T4    T5    T6    T7    T8    T9   T10   T11   T12
       39 99999 99999 99999     0     0     0     0     0     0     0     0
   C1   C2   C3   C4   C5   C6   C7   C8   C9  C10  C11  C12  C13  C14  C15  C16
9999999999999999999999999999999999999999    0    0    0    0   20   16   16   20
    0    0    0    0    0    0    0    0    0    0    0    0   16   16   16   16

                   VR1     cost =      67
                   Bra-TRn cost =      48
                   Ket-TRn cost =       0

                   Space needed for drivers          =    1182
                   Space needed for driver formation =    1568

                   KBra   KKet   Path     Mops    Wds/S4    MaxCom 

                   C37 =       0
                   C38 =       0
 Prsmar:  LTot= 2 LBK=  1  0 KBK=     1     1 Path=29 Kost=         119 NPerS4=         197 nW0=          17 nW1=          13 nW2=          17
          nW0X=           0 NPS4B=          38 jNext=        1208 NLeft=    33544247 jEnd=      164916 LenV=    33545458 MaxCom=         831
 Prsmar:  LTot= 2 LBK=  1  0 KBK=     3     1 Path=29 Kost=         287 NPerS4=         259 nW0=          33 nW1=          13 nW2=          33
          nW0X=           0 NPS4B=          82 jNext=        1232 NLeft=    33544223 jEnd=      164921 LenV=    33545458 MaxCom=         632
 Prsmar:  LTot= 2 LBK=  1  0 KBK=     6     1 Path=29 Kost=         539 NPerS4=         361 nW0=          66 nW1=          13 nW2=          66
          nW0X=           0 NPS4B=         148 jNext=        1207 NLeft=    33544248 jEnd=      164741 LenV=    33545458 MaxCom=         453
 Prsmar:  LTot= 2 LBK=  1  0 KBK=     9     1 Path=29 Kost=         791 NPerS4=         463 nW0=          99 nW1=          13 nW2=          99
          nW0X=           0 NPS4B=         214 jNext=        1240 NLeft=    33544215 jEnd=      164680 LenV=    33545458 MaxCom=         353
 Prsmar:  LTot= 2 LBK=  1  0 KBK=    18     1 Path=29 Kost=        1547 NPerS4=         769 nW0=         198 nW1=          13 nW2=         198
          nW0X=           0 NPS4B=         412 jNext=        1219 NLeft=    33544236 jEnd=      165017 LenV=    33545458 MaxCom=         213

                             -------------------
                             The (ss|ss) Classes
 Not enough memory for any path:
 MxKBra=   36 MxKKet=    1 Memory=    33545152.
                             -------------------

       Available PRISM Paths: 29

    No. of target [m0|n0]   =     4
    No. of locations needed =     4

       T1    T2    T3    T4    T5    T6    T7    T8    T9   T10   T11   T12
        7 99999 99999 99999     0     0     0     0     0     0     0     0
   C1   C2   C3   C4   C5   C6   C7   C8   C9  C10  C11  C12  C13  C14  C15  C16
9999999999999999999999999999999999999999    0    0    0    0    4    4    4    4
    0    0    0    0    0    0    0    0    0    0    0    0    4    4    4    4

                   VR1     cost =      15
                   Bra-TRn cost =      12
                   Ket-TRn cost =       0

                   Space needed for drivers          =     392
                   Space needed for driver formation =     506

                   KBra   KKet   Path     Mops    Wds/S4    MaxCom 

                   C37 =       0
                   C38 =       0
 Prsmar:  LTot= 1 LBK=  0  0 KBK=     1     1 Path=29 Kost=          27 NPerS4=         102 nW0=           4 nW1=           4 nW2=           4
          nW0X=           0 NPS4B=          28 jNext=         420 NLeft=    33545035 jEnd=      164233 LenV=    33545458 MaxCom=        1606
 Prsmar:  LTot= 1 LBK=  0  0 KBK=     3     1 Path=29 Kost=          65 NPerS4=         154 nW0=          12 nW1=           4 nW2=          12
          nW0X=           0 NPS4B=          70 jNext=         426 NLeft=    33545029 jEnd=      164129 LenV=    33545458 MaxCom=        1063
 Prsmar:  LTot= 1 LBK=  0  0 KBK=     9     1 Path=29 Kost=         179 NPerS4=         310 nW0=          36 nW1=           4 nW2=          36
          nW0X=           0 NPS4B=         196 jNext=         414 NLeft=    33545041 jEnd=      164095 LenV=    33545458 MaxCom=         528
 Prsmar:  LTot= 1 LBK=  0  0 KBK=     8     1 Path=29 Kost=         160 NPerS4=         284 nW0=          32 nW1=           4 nW2=          32
          nW0X=           0 NPS4B=         175 jNext=         416 NLeft=    33545039 jEnd=      164001 LenV=    33545458 MaxCom=         576
 Prsmar:  LTot= 1 LBK=  0  0 KBK=     6     1 Path=29 Kost=         122 NPerS4=         232 nW0=          24 nW1=           4 nW2=          24
          nW0X=           0 NPS4B=         133 jNext=         414 NLeft=    33545041 jEnd=      164207 LenV=    33545458 MaxCom=         706
 Prsmar:  LTot= 1 LBK=  0  0 KBK=    14     1 Path=29 Kost=         274 NPerS4=         440 nW0=          56 nW1=           4 nW2=          56
          nW0X=           0 NPS4B=         301 jNext=         414 NLeft=    33545041 jEnd=      164095 LenV=    33545458 MaxCom=         372
 Prsmar:  LTot= 1 LBK=  0  0 KBK=    36     1 Path=29 Kost=         692 NPerS4=        1012 nW0=         144 nW1=           4 nW2=         144
          nW0X=           0 NPS4B=         763 jNext=         411 NLeft=    33545044 jEnd=      163344 LenV=    33545458 MaxCom=         161
 IPart=  0 NShTot=          66 NBatch=          15 AvBLen=         4.4
 PrSmSu:  NxtVal=              2.
 Multipole matrices IBuc=  518 IX=    1 IJ=           1:
                1             2             3             4             5 
      1  0.000000D+00
      2  0.000000D+00  0.000000D+00
      3  0.948317D-01  0.685407D+00  0.000000D+00
      4  0.000000D+00  0.000000D+00  0.000000D+00  0.000000D+00
      5  0.000000D+00  0.000000D+00  0.000000D+00  0.000000D+00  0.000000D+00
      6  0.000000D+00  0.000000D+00  0.693556D+00  0.000000D+00  0.000000D+00
      7  0.159312D-01  0.502210D+00  0.000000D+00  0.000000D+00  0.000000D+00
      8  0.000000D+00  0.000000D+00  0.000000D+00  0.000000D+00  0.000000D+00
      9  0.000000D+00  0.000000D+00  0.000000D+00  0.000000D+00  0.000000D+00
     10  0.500925D-02  0.192844D+00  0.266806D+00  0.138169D+00  0.138169D+00
     11  0.375876D-02  0.137753D+00  0.440301D+00  0.383099D-01  0.383099D-01
     12 -0.500925D-02 -0.192844D+00  0.266806D+00  0.138169D+00 -0.138169D+00
[...]
   3        2PX         0.00000   0.00000   0.00000   0.43685   0.00000
   4        2PY         0.00000   0.00000   0.00000   0.00000   0.43685
   5        2PZ         0.00000   0.00000   0.43685   0.00000   0.00000
   6        3S         -0.01651   0.38368   0.00000   0.00000   0.00000
   7        3PX         0.00000   0.00000   0.00000   0.22179   0.00000
   8        3PY         0.00000   0.00000   0.00000   0.00000   0.22179
   9        3PZ         0.00000   0.00000   0.22179   0.00000   0.00000
  10 2   H  1S         -0.00011   0.13473   0.17395   0.17395   0.17395
  11        2S          0.00313   0.03309   0.14169   0.14169   0.14169
  12 3   H  1S         -0.00011   0.13473   0.17395  -0.17395  -0.17395
  13        2S          0.00313   0.03309   0.14169  -0.14169  -0.14169
  14 4   H  1S         -0.00011   0.13473  -0.17395  -0.17395   0.17395
  15        2S          0.00313   0.03309  -0.14169  -0.14169   0.14169
  16 5   H  1S         -0.00011   0.13473  -0.17395   0.17395  -0.17395
  17        2S          0.00313   0.03309  -0.14169   0.14169  -0.14169
                           6         7         8         9        10
                        (A1)--V   (T2)--V   (T2)--V   (T2)--V   (T2)--V
     Eigenvalues --     0.25567   0.32461   0.32461   0.32461   0.74160
   1 1   C  1S         -0.15367   0.00000   0.00000   0.00000   0.00000
   2        2S          0.09279   0.00000   0.00000   0.00000   0.00000
   3        2PX         0.00000   0.00000   0.00000   0.29968   0.00000
   4        2PY         0.00000   0.00000   0.29968   0.00000   0.00000
   5        2PZ         0.00000   0.29968   0.00000   0.00000  -0.77183
   6        3S          2.78310   0.00000   0.00000   0.00000   0.00000
   7        3PX         0.00000   0.00000   0.00000   1.50150   0.00000
   8        3PY         0.00000   0.00000   1.50150   0.00000   0.00000
   9        3PZ         0.00000   1.50150   0.00000   0.00000   1.46278
  10 2   H  1S          0.00310  -0.04796  -0.04796  -0.04796  -0.31753
  11        2S         -1.04122  -1.16691  -1.16691  -1.16691  -0.11251
  12 3   H  1S          0.00310  -0.04796   0.04796   0.04796  -0.31753
  13        2S         -1.04122  -1.16691   1.16691   1.16691  -0.11251
  14 4   H  1S          0.00310   0.04796  -0.04796   0.04796   0.31753
  15        2S         -1.04122   1.16691  -1.16691   1.16691   0.11251
  16 5   H  1S          0.00310   0.04796   0.04796  -0.04796   0.31753
  17        2S         -1.04122   1.16691   1.16691  -1.16691   0.11251
                          11        12        13        14        15
                        (T2)--V   (T2)--V   (T2)--V   (T2)--V   (T2)--V
     Eigenvalues --     0.74160   0.74160   1.23039   1.23039   1.23039
   1 1   C  1S          0.00000   0.00000   0.00000   0.00000   0.00000
   2        2S          0.00000   0.00000   0.00000   0.00000   0.00000
   3        2PX         0.00000  -0.77183  -0.89608   0.00000   0.00000
   4        2PY        -0.77183   0.00000   0.00000   0.00000  -0.89608
   5        2PZ         0.00000   0.00000   0.00000  -0.89608   0.00000
   6        3S          0.00000   0.00000   0.00000   0.00000   0.00000
   7        3PX         0.00000   1.46278   1.03504   0.00000   0.00000
   8        3PY         1.46278   0.00000   0.00000   0.00000   1.03504
   9        3PZ         0.00000   0.00000   0.00000   1.03504   0.00000
  10 2   H  1S         -0.31753  -0.31753   0.59545   0.59545   0.59545
  11        2S         -0.11251  -0.11251  -0.90769  -0.90769  -0.90769
  12 3   H  1S          0.31753   0.31753  -0.59545   0.59545  -0.59545
  13        2S          0.11251   0.11251   0.90769  -0.90769   0.90769
  14 4   H  1S         -0.31753   0.31753  -0.59545  -0.59545   0.59545
  15        2S         -0.11251   0.11251   0.90769   0.90769  -0.90769
  16 5   H  1S          0.31753  -0.31753   0.59545  -0.59545  -0.59545
  17        2S          0.11251  -0.11251  -0.90769   0.90769   0.90769
                          16        17
                        (A1)--V   (A1)--V
     Eigenvalues --     1.24775   1.32852
   1 1   C  1S          0.10300  -0.08143
   2        2S         -1.07910  -2.14069
   3        2PX         0.00000   0.00000
   4        2PY         0.00000   0.00000
   5        2PZ         0.00000   0.00000
   6        3S          1.48914   5.19044
   7        3PX         0.00000   0.00000
   8        3PY         0.00000   0.00000
   9        3PZ         0.00000   0.00000
  10 2   H  1S          0.61922  -0.36522
  11        2S         -0.58536  -0.94689
  12 3   H  1S          0.61922  -0.36522
  13        2S         -0.58536  -0.94689
  14 4   H  1S          0.61922  -0.36522
  15        2S         -0.58536  -0.94689
  16 5   H  1S          0.61922  -0.36522
  17        2S         -0.58536  -0.94689
     Density Matrix:
                           1         2         3         4         5
   1 1   C  1S          2.06229
   2        2S         -0.09645   0.28052
   3        2PX         0.00000   0.00000   0.38168
   4        2PY         0.00000   0.00000   0.00000   0.38168
   5        2PZ         0.00000   0.00000   0.00000   0.00000   0.38168
   6        3S         -0.18412   0.28588   0.00000   0.00000   0.00000
   7        3PX         0.00000   0.00000   0.19378   0.00000   0.00000
   8        3PY         0.00000   0.00000   0.00000   0.19378   0.00000
   9        3PZ         0.00000   0.00000   0.00000   0.00000   0.19378
  10 2   H  1S         -0.05332   0.10068   0.15198   0.15198   0.15198
  11        2S         -0.00681   0.02489   0.12380   0.12380   0.12380
  12 3   H  1S         -0.05332   0.10068  -0.15198  -0.15198   0.15198
  13        2S         -0.00681   0.02489  -0.12380  -0.12380   0.12380
  14 4   H  1S         -0.05332   0.10068  -0.15198   0.15198  -0.15198
  15        2S         -0.00681   0.02489  -0.12380   0.12380  -0.12380
  16 5   H  1S         -0.05332   0.10068   0.15198  -0.15198  -0.15198
  17        2S         -0.00681   0.02489   0.12380  -0.12380  -0.12380
                           6         7         8         9        10
   6        3S          0.29497
   7        3PX         0.00000   0.09838
   8        3PY         0.00000   0.00000   0.09838
   9        3PZ         0.00000   0.00000   0.00000   0.09838
  10 2   H  1S          0.10339   0.07716   0.07716   0.07716   0.21786
  11        2S          0.02529   0.06285   0.06285   0.06285   0.15681
  12 3   H  1S          0.10339  -0.07716  -0.07716   0.07716  -0.02421
  13        2S          0.02529  -0.06285  -0.06285   0.06285  -0.04038
  14 4   H  1S          0.10339  -0.07716   0.07716  -0.07716  -0.02421
  15        2S          0.02529  -0.06285   0.06285  -0.06285  -0.04038
  16 5   H  1S          0.10339   0.07716  -0.07716  -0.07716  -0.02421
  17        2S          0.02529   0.06285  -0.06285  -0.06285  -0.04038
                          11        12        13        14        15
  11        2S          0.12267
  12 3   H  1S         -0.04038   0.21786
  13        2S         -0.03794   0.15681   0.12267
  14 4   H  1S         -0.04038  -0.02421  -0.04038   0.21786
  15        2S         -0.03794  -0.04038  -0.03794   0.15681   0.12267
  16 5   H  1S         -0.04038  -0.02421  -0.04038  -0.02421  -0.04038
  17        2S         -0.03794  -0.04038  -0.03794  -0.04038  -0.03794
                          16        17
  16 5   H  1S          0.21786
  17        2S          0.15681   0.12267
    Full Mulliken population analysis:
                           1         2         3         4         5
   1 1   C  1S          2.06229
   2        2S         -0.02113   0.28052
   3        2PX         0.00000   0.00000   0.38168
   4        2PY         0.00000   0.00000   0.00000   0.38168
   5        2PZ         0.00000   0.00000   0.00000   0.00000   0.38168
   6        3S         -0.03393   0.23221   0.00000   0.00000   0.00000
   7        3PX         0.00000   0.00000   0.11041   0.00000   0.00000
   8        3PY         0.00000   0.00000   0.00000   0.11041   0.00000
   9        3PZ         0.00000   0.00000   0.00000   0.00000   0.11041
  10 2   H  1S         -0.00178   0.02788   0.03269   0.03269   0.03269
  11        2S         -0.00063   0.01191   0.01900   0.01900   0.01900
  12 3   H  1S         -0.00178   0.02788   0.03269   0.03269   0.03269
  13        2S         -0.00063   0.01191   0.01900   0.01900   0.01900
  14 4   H  1S         -0.00178   0.02788   0.03269   0.03269   0.03269
  15        2S         -0.00063   0.01191   0.01900   0.01900   0.01900
  16 5   H  1S         -0.00178   0.02788   0.03269   0.03269   0.03269
  17        2S         -0.00063   0.01191   0.01900   0.01900   0.01900
                           6         7         8         9        10
   6        3S          0.29497
   7        3PX         0.00000   0.09838
   8        3PY         0.00000   0.00000   0.09838
   9        3PZ         0.00000   0.00000   0.00000   0.09838
  10 2   H  1S          0.03919   0.02296   0.02296   0.02296   0.21786
  11        2S          0.01788   0.02111   0.02111   0.02111   0.10322
  12 3   H  1S          0.03919   0.02296   0.02296   0.02296  -0.00046
  13        2S          0.01788   0.02111   0.02111   0.02111  -0.00611
  14 4   H  1S          0.03919   0.02296   0.02296   0.02296  -0.00046
  15        2S          0.01788   0.02111   0.02111   0.02111  -0.00611
  16 5   H  1S          0.03919   0.02296   0.02296   0.02296  -0.00046
  17        2S          0.01788   0.02111   0.02111   0.02111  -0.00611
                          11        12        13        14        15
  11        2S          0.12267
  12 3   H  1S         -0.00611   0.21786
  13        2S         -0.01537   0.10322   0.12267
  14 4   H  1S         -0.00611  -0.00046  -0.00611   0.21786
  15        2S         -0.01537  -0.00611  -0.01537   0.10322   0.12267
  16 5   H  1S         -0.00611  -0.00046  -0.00611  -0.00046  -0.00611
  17        2S         -0.01537  -0.00611  -0.01537  -0.00611  -0.01537
                          16        17
  16 5   H  1S          0.21786
  17        2S          0.10322   0.12267
     Gross orbital populations:
                           1
   1 1   C  1S          1.99757
   2        2S          0.65073
   3        2PX         0.69885
   4        2PY         0.69885
   5        2PZ         0.69885
   6        3S          0.72152
   7        3PX         0.38508
   8        3PY         0.38508
   9        3PZ         0.38508
  10 2   H  1S          0.53362
  11        2S          0.31097
  12 3   H  1S          0.53362
  13        2S          0.31097
  14 4   H  1S          0.53362
  15        2S          0.31097
  16 5   H  1S          0.53362
  17        2S          0.31097
          Condensed to atoms (all electrons):
               1          2          3          4          5
     1  C    5.094714   0.381730   0.381730   0.381730   0.381730
     2  H    0.381730   0.546985  -0.028041  -0.028041  -0.028041
     3  H    0.381730  -0.028041   0.546985  -0.028041  -0.028041
     4  H    0.381730  -0.028041  -0.028041   0.546985  -0.028041
     5  H    0.381730  -0.028041  -0.028041  -0.028041   0.546985
 Mulliken charges:
               1
     1  C   -0.621633
     2  H    0.155408
     3  H    0.155408
     4  H    0.155408
     5  H    0.155408
 Sum of Mulliken charges =   0.00000
 Mulliken charges with hydrogens summed into heavy atoms:
               1
     1  C    0.000000
 Electronic spatial extent (au):  <R**2>=             35.6036
 Charge=              0.0000 electrons
 Dipole moment (field-independent basis, Debye):
    X=              0.0000    Y=              0.0000    Z=              0.0000  Tot=              0.0000
 Quadrupole moment (field-independent basis, Debye-Ang):
   XX=             -8.4240   YY=             -8.4240   ZZ=             -8.4240
   XY=              0.0000   XZ=              0.0000   YZ=              0.0000
 Traceless Quadrupole moment (field-independent basis, Debye-Ang):
   XX=              0.0000   YY=              0.0000   ZZ=              0.0000
   XY=              0.0000   XZ=              0.0000   YZ=              0.0000
 Octapole moment (field-independent basis, Debye-Ang**2):
  XXX=              0.0000  YYY=              0.0000  ZZZ=              0.0000  XYY=              0.0000
  XXY=              0.0000  XXZ=              0.0000  XZZ=              0.0000  YZZ=              0.0000
  YYZ=              0.0000  XYZ=              0.6220
 Hexadecapole moment (field-independent basis, Debye-Ang**3):
 XXXX=            -15.8901 YYYY=            -15.8901 ZZZZ=            -15.8901 XXXY=              0.0000
 XXXZ=              0.0000 YYYX=              0.0000 YYYZ=              0.0000 ZZZX=              0.0000
 ZZZY=              0.0000 XXYY=             -4.8941 XXZZ=             -4.8941 YYZZ=             -4.8941
 XXYZ=              0.0000 YYXZ=              0.0000 ZZXY=              0.0000
 N-N= 1.349784301922D+01 E-N=-1.200227839272D+02  KE= 4.023788552042D+01
 Symmetry A    KE= 3.453493923021D+01
 Symmetry B1   KE= 1.900982096737D+00
 Symmetry B2   KE= 1.900982096737D+00
 Symmetry B3   KE= 1.900982096737D+00
 Orbital energies and kinetic energies (alpha):
                                 1                 2
   1         (A1)--O         -11.205089         16.017611
   2         (A1)--O          -0.947912          1.249859
   3         (T2)--O          -0.544308          0.950491
   4         (T2)--O          -0.544308          0.950491
   5         (T2)--O          -0.544308          0.950491
   6         (A1)--V           0.255673          0.848943
   7         (T2)--V           0.324605          0.727173
   8         (T2)--V           0.324605          0.727173
   9         (T2)--V           0.324605          0.727173
  10         (T2)--V           0.741597          1.597740
  11         (T2)--V           0.741597          1.597740
  12         (T2)--V           0.741597          1.597740
  13         (T2)--V           1.230394          2.847627
  14         (T2)--V           1.230394          2.847627
  15         (T2)--V           1.230394          2.847627
  16         (A1)--V           1.247748          2.961838
  17         (A1)--V           1.328520          2.008663
 Total kinetic energy from orbitals= 4.023788552042D+01
 No NMR shielding tensors so no spin-rotation constants.
 Leave Link  601 at Fri May 29 13:54:21 2015, MaxMem=    33554432 cpu:               0.1 elap:               0.1
 (Enter /home/gauss/gdvi02/gdv/l9999.exe)
 Unable to Open any file for archive entry.
 1\1\GINC-MEDUSA\SP\RHF\6-31G\C1H4\DBWY\29-May-2015\0\\#p hf/6-31G GFIn
 put pop=full iop33(3=5) output=RawMatrixElement units=bohr\\CH4 6-31G 
 SCF\\0,1\C,0,0.,0.,0.\H,0,0.6264000029,-0.6264000029,-0.6264000029\H,0
 ,0.6264000029,0.6264000029,0.6264000029\H,0,-0.6264000029,0.6264000029
 ,-0.6264000029\H,0,-0.6264000029,-0.6264000029,0.6264000029\\Version=E
 S64L-GDVRevI.02\State=1-A1\HF=-40.1805319\RMSD=9.811e-10\Dipole=0.,0.,
 0.\Quadrupole=0.,0.,0.,0.,0.,0.\PG=TD [O(C1),4C3(H1)]\\@
 The archive entry for this job was punched.


 OLD HORSE! OLD HORSE! WHAT BROUGHT YOU HERE?
 FROM SACARAP' TO PORTLAND PIER
 I'VE CARTED STONE THIS MANY A YEAR;
 TILL, KILLED BY BLOWS AND SORE ABUSE,
 THEY SALTED ME DOWN FOR SAILORS' USE.
 THE SAILORS THEY DO ME DESPISE;
 THEY TURN ME OVER AND DAMN MY EYES;
 CUT OFF MY MEAT, AND SCRAPE MY BONES,
 AND PITCH ME OVER TO DAVY JONES.

    SAILORS' COMPLAINT ABOUT THE BEEF
    SERVED ON SHIPBOARD, CIRCA 1835.

 Writing WrtUnf raw file "ch4_631g.matel"
 Gaussian matrix elements                                         Version   2 NLab=11 Len12L=4 Len4L=4
 WrtUnf:  Coordinates translated and rotated.
 WrtUnf:  Coordinates match /B/ after translation and rotation.
 Write SHELL TO ATOM MAP                   from file     0 offset           0 length                  11 to matrix element file.
 Write SHELL TYPES                         from file     0 offset           0 length                  11 to matrix element file.
 Write NUMBER OF PRIMITIVES PER SHELL      from file     0 offset           0 length                  11 to matrix element file.
 Write PRIMITIVE EXPONENTS                 from file     0 offset           0 length                  26 to matrix element file.
 Write CONTRACTION COEFFICIENTS            from file     0 offset           0 length                  26 to matrix element file.
 Write P(S=P) CONTRACTION COEFFICIENTS     from file     0 offset           0 length                  26 to matrix element file.
 Write COORDINATES OF EACH SHELL           from file     0 offset           0 length                  33 to matrix element file.
 Write BONDS PER ATOM                      from file     0 offset           0 length                   5 to matrix element file.
 Write BONDED ATOMS                        from file     0 offset           0 length                   8 to matrix element file.
 Write BOND TYPES                          from file     0 offset           0 length                   8 to matrix element file.
 Write GAUSSIAN SCALARS                    from file   501 offset           0 to matrix element file.
 Write INTEGER ISO                         from file     0 offset           0 length                   5 to matrix element file.
 Write INTEGER SPIN                        from file     0 offset           0 length                   5 to matrix element file.
 Write REAL ZEFFECTIVE                     from file     0 offset           0 length                   5 to matrix element file.
 Write REAL GFACTOR                        from file     0 offset           0 length                   5 to matrix element file.
 Write REAL ZNUCLEAR                       from file     0 offset           0 length                   5 to matrix element file.
 Write NUCLEAR GRADIENT                    from file 10584 offset           0 length                  15 to matrix element file.
 Array NUCLEAR FORCE CONSTANTS              on  file 10585 does not exist.
 Write ELECTRIC DIPOLE MOMENT              from file     0 offset           0 length                   3 to matrix element file.
 Write OVERLAP                             from file   514 offset           0 length                 153 to matrix element file.
 Write CORE HAMILTONIAN ALPHA              from file   515 offset           0 length                 153 to matrix element file.
 Write CORE HAMILTONIAN BETA               from file   515 offset         153 length                 153 to matrix element file.
 Write KINETIC ENERGY                      from file   516 offset           0 length                 153 to matrix element file.
 Write ORTHOGONAL BASIS                    from file   685 offset           0 length                 289 to matrix element file.
 Write DIPOLE INTEGRALS                    from file   518 offset           0 length                 459 to matrix element file.
 Array DIP VEL INTEGRALS                    on  file   572 does not exist.
 Array R X DEL INTEGRALS                    on  file   572 does not exist.
 Write ALPHA ORBITAL ENERGIES              from file     0 offset           0 length                  17 to matrix element file.
 Write ALPHA MO COEFFICIENTS               from file 10524 offset           0 length                 289 to matrix element file.
 Write ALPHA DENSITY MATRIX                from file 10528 offset           0 length                 153 to matrix element file.
 Write ALPHA SCF DENSITY MATRIX            from file 10528 offset           0 length                 153 to matrix element file.
 Write ALPHA FOCK MATRIX                   from file 10536 offset           0 length                 153 to matrix element file.
 No 2e integrals to process.
 Job cpu time:       0 days  0 hours  0 minutes  0.9 seconds.
 Elapsed time:       0 days  0 hours  0 minutes  0.7 seconds.
 File lengths (MBytes):  RWF=      5 Int=      0 D2E=      0 Chk=      1 Scr=      1
 Normal termination of Gaussian DV at Fri May 29 13:54:21 2015.
