 Entering Gaussian System, Link 0=gdv
 Input=ch4_vdz.com
 Output=ch4_vdz.log
 Initial command:
 /home/gauss/gdvi02/gdv/l1.exe "/home/GauScr/Gau-18315.inp" -scrdir="/home/GauScr/"
 Entering Link 1 = /home/gauss/gdvi02/gdv/l1.exe PID=     18316.
  
 Copyright (c) 1988,1990,1992,1993,1995,1998,2003,2009,2014,
            Gaussian, Inc.  All Rights Reserved.
  
 This is the private, development version of
 the Gaussian(R) DV system of programs. It is based on
 the Gaussian(R) 09 system (copyright 2009, Gaussian, Inc.),
 the Gaussian(R) 03 system (copyright 2003, Gaussian, Inc.),
 the Gaussian(R) 98 system (copyright 1998, Gaussian, Inc.),
 the Gaussian(R) 94 system (copyright 1995, Gaussian, Inc.),
 the Gaussian 92(TM) system (copyright 1992, Gaussian, Inc.),
 the Gaussian 90(TM) system (copyright 1990, Gaussian, Inc.),
 the Gaussian 88(TM) system (copyright 1988, Gaussian, Inc.),
 the Gaussian 86(TM) system (copyright 1986, Carnegie Mellon
 University), and the Gaussian 82(TM) system (copyright 1983,
 Carnegie Mellon University). Gaussian is a federally registered
 trademark of Gaussian, Inc.
  
 This software contains proprietary and confidential information,
 including trade secrets, belonging to Gaussian, Inc.
  
 This software is provided under written license and may be
 used, copied, transmitted, or stored only in accord with that
 written license.
  
 The following legend is applicable only to US Government
 contracts under FAR:
  
                    RESTRICTED RIGHTS LEGEND
  
 Use, reproduction and disclosure by the US Government is
 subject to restrictions as set forth in subparagraphs (a)
 and (c) of the Commercial Computer Software - Restricted
 Rights clause in FAR 52.227-19.
  
 Gaussian, Inc.
 340 Quinnipiac St., Bldg. 40, Wallingford CT 06492
  
  
 ---------------------------------------------------------------
 Warning -- This program may not be used in any manner that
 competes with the business of Gaussian, Inc. or will provide
 assistance to any competitor of Gaussian, Inc.  The licensee
 of this program is prohibited from giving any competitor of
 Gaussian, Inc. access to this program.  By using this program,
 the user acknowledges that Gaussian, Inc. is engaged in the
 business of creating and licensing software in the field of
 computational chemistry and represents and warrants to the
 licensee that it is not a competitor of Gaussian, Inc. and that
 it will not use this program in any manner prohibited above.
 ---------------------------------------------------------------
  

 Cite this work as:
 Gaussian Development Version, Revision I.02,
 M. J. Frisch, G. W. Trucks, H. B. Schlegel, G. E. Scuseria, 
 M. A. Robb, J. R. Cheeseman, G. Scalmani, V. Barone, B. Mennucci, 
 G. A. Petersson, H. Nakatsuji, M. Caricato, X. Li, H. P. Hratchian, 
 J. Bloino, B. G. Janesko, A. F. Izmaylov, F. Lipparini, G. Zheng, 
 J. L. Sonnenberg, W. Liang, M. Hada, M. Ehara, K. Toyota, R. Fukuda, 
 J. Hasegawa, M. Ishida, T. Nakajima, Y. Honda, O. Kitao, H. Nakai, 
 T. Vreven, K. Throssell, J. A. Montgomery, Jr., J. E. Peralta, 
 F. Ogliaro, M. Bearpark, J. J. Heyd, E. Brothers, K. N. Kudin, 
 V. N. Staroverov, T. Keith, R. Kobayashi, J. Normand, 
 K. Raghavachari, A. Rendell, J. C. Burant, S. S. Iyengar, J. Tomasi, 
 M. Cossi, N. Rega, J. M. Millam, M. Klene, J. E. Knox, J. B. Cross, 
 V. Bakken, C. Adamo, J. Jaramillo, R. Gomperts, R. E. Stratmann, 
 O. Yazyev, A. J. Austin, R. Cammi, C. Pomelli, J. W. Ochterski, 
 R. L. Martin, K. Morokuma, V. G. Zakrzewski, G. A. Voth, 
 P. Salvador, J. J. Dannenberg, S. Dapprich, P. V. Parandekar, 
 N. J. Mayhall, A. D. Daniels, O. Farkas, J. B. Foresman, 
 J. V. Ortiz, J. Cioslowski, and D. J. Fox, 
 Gaussian, Inc., Wallingford CT, 2014.
 
 ******************************************
 Gaussian DV:  ES64L-GDVRevI.02  7-Dec-2014
                29-May-2015 
 ******************************************
 ----------------------------------------------------------------------
 #p hf/cc-pVDZ GFInput pop=full iop33(3=5) output=RawMatrixElement unit
 s=bohr 6D
 ----------------------------------------------------------------------
 1/20=1,38=1,172=1/1;
 2/12=2,17=6,18=5,40=1/2;
 3/5=16,8=2,11=9,24=10,25=1,30=1,33=5,160=2000000/1,2,3;
 4//1;
 5/5=2,38=5/2;
 6/7=3,28=1,125=2000000/1;
 99/5=1,6=100000,9=1,125=2000000/99;
 Leave Link    1 at Fri May 29 14:34:31 2015, MaxMem=           0 cpu:               0.0 elap:               0.1
 (Enter /home/gauss/gdvi02/gdv/l101.exe)
 ---------------
 CH4 cc-pVDZ SCF
 ---------------
 Symbolic Z-matrix:
 Charge =  0 Multiplicity = 1
 6                     0.        0.        0. 
 1                     1.18372  -1.18372  -1.18372 
 1                     1.18372   1.18372   1.18372 
 1                    -1.18372   1.18372  -1.18372 
 1                    -1.18372  -1.18372   1.18372 
 
 ITRead=  0  0  0  0  0
 MicOpt= -1 -1 -1 -1 -1
 NAtoms=      5 NQM=        5 NQMF=       0 NMMI=      0 NMMIF=      0
                NMic=       0 NMicF=      0.
                    Isotopes and Nuclear Properties:
 (Nuclear quadrupole moments (NQMom) in fm**2, nuclear magnetic moments (NMagM)
  in nuclear magnetons)

  Atom         1           2           3           4           5
 IAtWgt=          12           1           1           1           1
 AtmWgt=  12.0000000   1.0078250   1.0078250   1.0078250   1.0078250
 NucSpn=           0           1           1           1           1
 AtZEff=   0.0000000   0.0000000   0.0000000   0.0000000   0.0000000
 NQMom=    0.0000000   0.0000000   0.0000000   0.0000000   0.0000000
 NMagM=    0.0000000   2.7928460   2.7928460   2.7928460   2.7928460
 AtZNuc=   6.0000000   1.0000000   1.0000000   1.0000000   1.0000000
 Leave Link  101 at Fri May 29 14:34:31 2015, MaxMem=    33554432 cpu:               0.1 elap:               0.1
 (Enter /home/gauss/gdvi02/gdv/l202.exe)
                          Input orientation:                          
 ---------------------------------------------------------------------
 Center     Atomic      Atomic             Coordinates (Angstroms)
 Number     Number       Type             X           Y           Z
 ---------------------------------------------------------------------
      1          6           0        0.000000    0.000000    0.000000
      2          1           0        0.626400   -0.626400   -0.626400
      3          1           0        0.626400    0.626400    0.626400
      4          1           0       -0.626400    0.626400   -0.626400
      5          1           0       -0.626400   -0.626400    0.626400
 ---------------------------------------------------------------------
                    Distance matrix (angstroms):
                    1          2          3          4          5
     1  C    0.000000
     2  H    1.084957   0.000000
     3  H    1.084957   1.771727   0.000000
     4  H    1.084957   1.771727   1.771727   0.000000
     5  H    1.084957   1.771727   1.771727   1.771727   0.000000
 Stoichiometry    CH4
 Framework group  TD[O(C),4C3(H)]
 Deg. of freedom     1
 Full point group                 TD      NOp  24
 Largest Abelian subgroup         D2      NOp   4
 Largest concise Abelian subgroup D2      NOp   4
                         Standard orientation:                         
 ---------------------------------------------------------------------
 Center     Atomic      Atomic             Coordinates (Angstroms)
 Number     Number       Type             X           Y           Z
 ---------------------------------------------------------------------
      1          6           0        0.000000    0.000000    0.000000
      2          1           0        0.626400    0.626400    0.626400
      3          1           0       -0.626400   -0.626400    0.626400
      4          1           0       -0.626400    0.626400   -0.626400
      5          1           0        0.626400   -0.626400   -0.626400
 ---------------------------------------------------------------------
 Rotational constants (GHZ):    159.7491542    159.7491542    159.7491542
 Leave Link  202 at Fri May 29 14:34:31 2015, MaxMem=    33554432 cpu:               0.0 elap:               0.0
 (Enter /home/gauss/gdvi02/gdv/l301.exe)
 Standard basis: CC-pVDZ (6D, 7F)
                         Coordinates in L301:                         
 ---------------------------------------------------------------------
 Center     Atomic      Atomic             Coordinates (Angstroms)
 Number     Number       Type             X           Y           Z
 ---------------------------------------------------------------------
      1          6           0        0.000000    0.000000    0.000000
      2          1           0        0.626400    0.626400    0.626400
      3          1           0       -0.626400   -0.626400    0.626400
      4          1           0       -0.626400    0.626400   -0.626400
      5          1           0        0.626400   -0.626400   -0.626400
 ---------------------------------------------------------------------
 FixB: optimizing general contractions.
 Ernie: Thresh=  0.10000D-02 Tol=  0.10000D-05 Strict=F.
 IA=     1 ShT= 0 ShC= 0 NL=   3 NS=   1.
         I=   1 JX=   1 NP=   8
         I=   2 JX=   2 NP=   8
         I=   3 JX=   3 NP=   1
 IA=     1 L=0 SC=0 ISt=    1 NBk=    2 NP=    8 IndPr=    0.
 DoElim1:  L=0 select primitive    2 from    2 using    1 C= 5.33D-03
 DoElim2:  L=0 select primitive    8 from    1 using    2 C= 5.48D-01
 Delete L=0 primitive    2 from    2 C=  0.00D+00.
 Delete L=0 primitive    8 from    1 C=  0.00D+00.
 IA=     1 L=0 SC=0 ISt=    0 NBk=    0 NP=    0 IndPr=   14.
 IA=     1 ShT= 1 ShC= 1 NL=   2 NS=   1.
         I=   1 JX=   4 NP=   3
         I=   2 JX=   5 NP=   1
 IA=     1 L=1 SC=1 ISt=    0 NBk=    0 NP=    0 IndPr=    0.
 IA=     1 ShT= 2 ShC= 2 NL=   1 NS=   1.
         I=   1 JX=   1 NP=   8
 IA=     1 L=2 SC=2 ISt=    0 NBk=    0 NP=    0 IndPr=    0.
 IA=     2 ShT= 0 ShC= 0 NL=   2 NS=   1.
         I=   1 JX=   7 NP=   3
         I=   2 JX=   8 NP=   1
 IA=     2 L=0 SC=0 ISt=    0 NBk=    0 NP=    0 IndPr=    0.
 IA=     2 ShT= 1 ShC= 1 NL=   1 NS=   1.
         I=   1 JX=   1 NP=   8
 IA=     2 L=1 SC=1 ISt=    0 NBk=    0 NP=    0 IndPr=    0.
 IA=     3 ShT= 0 ShC= 0 NL=   2 NS=   1.
         I=   1 JX=  10 NP=   3
         I=   2 JX=  11 NP=   1
 IA=     3 L=0 SC=0 ISt=    0 NBk=    0 NP=    0 IndPr=    0.
 IA=     3 ShT= 1 ShC= 1 NL=   1 NS=   1.
         I=   1 JX=   1 NP=   8
 IA=     3 L=1 SC=1 ISt=    0 NBk=    0 NP=    0 IndPr=    0.
 IA=     4 ShT= 0 ShC= 0 NL=   2 NS=   1.
         I=   1 JX=  13 NP=   3
         I=   2 JX=  14 NP=   1
 IA=     4 L=0 SC=0 ISt=    0 NBk=    0 NP=    0 IndPr=    0.
 IA=     4 ShT= 1 ShC= 1 NL=   1 NS=   1.
         I=   1 JX=   1 NP=   8
 IA=     4 L=1 SC=1 ISt=    0 NBk=    0 NP=    0 IndPr=    0.
 IA=     5 ShT= 0 ShC= 0 NL=   2 NS=   1.
         I=   1 JX=  16 NP=   3
         I=   2 JX=  17 NP=   1
 IA=     5 L=0 SC=0 ISt=    0 NBk=    0 NP=    0 IndPr=    0.
 IA=     5 ShT= 1 ShC= 1 NL=   1 NS=   1.
         I=   1 JX=   1 NP=   8
 IA=     5 L=1 SC=1 ISt=    0 NBk=    0 NP=    0 IndPr=    0.
 Ernie:  2 primitive shells out of 42 were deleted.
 Electric field displacement of shell     1 is  0.00D+00
 Electric field displacement of shell     2 is  0.00D+00
 Electric field displacement of shell     3 is  0.00D+00
 Electric field displacement of shell     4 is  0.00D+00
 Electric field displacement of shell     5 is  0.00D+00
 Electric field displacement of shell     6 is  0.00D+00
 Electric field displacement of shell     7 is  0.00D+00
 Electric field displacement of shell     8 is  0.00D+00
 Electric field displacement of shell     9 is  0.00D+00
 Electric field displacement of shell    10 is  0.00D+00
 Electric field displacement of shell    11 is  0.00D+00
 Electric field displacement of shell    12 is  0.00D+00
 Electric field displacement of shell    13 is  0.00D+00
 Electric field displacement of shell    14 is  0.00D+00
 Electric field displacement of shell    15 is  0.00D+00
 Electric field displacement of shell    16 is  0.00D+00
 Electric field displacement of shell    17 is  0.00D+00
 Electric field displacement of shell    18 is  0.00D+00
 AO basis set in the form of general basis input (Overlap normalization):
      1 0
 S   7 1.00       0.000000000000
      0.6665000000D+04  0.6935163173D-03
      0.1000000000D+04  0.5341502433D-02
      0.2280000000D+03  0.2713667141D-01
      0.6471000000D+02  0.1019923853D+00
      0.2106000000D+02  0.2755086365D+00
      0.7495000000D+01  0.4510864331D+00
      0.2797000000D+01  0.2875657448D+00
 S   7 1.00       0.000000000000
      0.6665000000D+04  0.7733547404D-05
      0.2280000000D+03  0.2780721367D-03
      0.6471000000D+02 -0.2578756542D-02
      0.2106000000D+02 -0.8950876838D-02
      0.7495000000D+01 -0.1060588547D+00
      0.2797000000D+01 -0.1315176856D+00
      0.5215000000D+00  0.1099486598D+01
 S   1 1.00       0.000000000000
      0.1596000000D+00  0.1000000000D+01
 P   3 1.00       0.000000000000
      0.9439000000D+01  0.5697925159D-01
      0.2002000000D+01  0.3132072115D+00
      0.5456000000D+00  0.7603767417D+00
 P   1 1.00       0.000000000000
      0.1517000000D+00  0.1000000000D+01
 D   1 1.00       0.000000000000
      0.5500000000D+00  0.1000000000D+01
 ****
      2 0
 S   3 1.00       0.000000000000
      0.1301000000D+02  0.3349872639D-01
      0.1962000000D+01  0.2348008012D+00
      0.4446000000D+00  0.8136829579D+00
 S   1 1.00       0.000000000000
      0.1220000000D+00  0.1000000000D+01
 P   1 1.00       0.000000000000
      0.7270000000D+00  0.1000000000D+01
 ****
      3 0
 S   3 1.00       0.000000000000
      0.1301000000D+02  0.3349872639D-01
      0.1962000000D+01  0.2348008012D+00
      0.4446000000D+00  0.8136829579D+00
 S   1 1.00       0.000000000000
      0.1220000000D+00  0.1000000000D+01
 P   1 1.00       0.000000000000
      0.7270000000D+00  0.1000000000D+01
 ****
      4 0
 S   3 1.00       0.000000000000
      0.1301000000D+02  0.3349872639D-01
      0.1962000000D+01  0.2348008012D+00
      0.4446000000D+00  0.8136829579D+00
 S   1 1.00       0.000000000000
      0.1220000000D+00  0.1000000000D+01
 P   1 1.00       0.000000000000
      0.7270000000D+00  0.1000000000D+01
 ****
      5 0
 S   3 1.00       0.000000000000
      0.1301000000D+02  0.3349872639D-01
      0.1962000000D+01  0.2348008012D+00
      0.4446000000D+00  0.8136829579D+00
 S   1 1.00       0.000000000000
      0.1220000000D+00  0.1000000000D+01
 P   1 1.00       0.000000000000
      0.7270000000D+00  0.1000000000D+01
 ****

 LdAtmC:  AtmChg=     6.000000     1.000000     1.000000     1.000000     1.000000
 AtZEff=     -3.6000000     -1.0000000     -1.0000000     -1.0000000     -1.0000000
 NEqShl: 
              1            2            3            4            5
     1            1            1            1            1            1
     2            2            2            2            2            2
     3            3            3            3            3            3
     4            4            4            4            4            4
     5            5            5            5            5            5
     6            6            6            6            6            6
     7            7           16           13           10            7
     8            8           17           14           11            8
     9            9           18           15           12            9
    10           10           13           16            7           13
    11           11           14           17            8           14
    12           12           15           18            9           15
    13           13           10            7           16           16
    14           14           11            8           17           17
    15           15           12            9           18           18
    16           16            7           10           13           10
    17           17            8           11           14           11
    18           18            9           12           15           12
              6            7            8            9           10
     1            1            1            1            1            1
     2            2            2            2            2            2
     3            3            3            3            3            3
     4            4            4            4            4            4
     5            5            5            5            5            5
     6            6            6            6            6            6
     7            7           16           10           10           13
     8            8           17           11           11           14
     9            9           18           12           12           15
    10           16            7           16           13            7
    11           17            8           17           14            8
    12           18            9           18           15            9
    13           10           13           13            7           10
    14           11           14           14            8           11
    15           12           15           15            9           12
    16           13           10            7           16           16
    17           14           11            8           17           17
    18           15           12            9           18           18
             11           12           13           14           15
     1            1            1            1            1            1
     2            2            2            2            2            2
     3            3            3            3            3            3
     4            4            4            4            4            4
     5            5            5            5            5            5
     6            6            6            6            6            6
     7           16           13           13           10           10
     8           17           14           14           11           11
     9           18           15           15           12           12
    10           10           10            7           16           13
    11           11           11            8           17           14
    12           12           12            9           18           15
    13            7           16           16            7           16
    14            8           17           17            8           17
    15            9           18           18            9           18
    16           13            7           10           13            7
    17           14            8           11           14            8
    18           15            9           12           15            9
             16           17           18           19           20
     1            1            1            1            1            1
     2            2            2            2            2            2
     3            3            3            3            3            3
     4            4            4            4            4            4
     5            5            5            5            5            5
     6            6            6            6            6            6
     7           16           16           13           16            7
     8           17           17           14           17            8
     9           18           18           15           18            9
    10            7           13           16           10           13
    11            8           14           17           11           14
    12            9           15           18           12           15
    13           10            7           10           13           10
    14           11            8           11           14           11
    15           12            9           12           15           12
    16           13           10            7            7           16
    17           14           11            8            8           17
    18           15           12            9            9           18
             21           22           23           24
     1            1            1            1            1
     2            2            2            2            2
     3            3            3            3            3
     4            4            4            4            4
     5            5            5            5            5
     6            6            6            6            6
     7            7           13           10            7
     8            8           14           11            8
     9            9           15           12            9
    10           16           10            7           10
    11           17           11            8           11
    12           18           12            9           12
    13           13            7           13           16
    14           14            8           14           17
    15           15            9           15           18
    16           10           16           16           13
    17           11           17           17           14
    18           12           18           18           15
 NEqBas: 
              1            2            3            4
     1            1            1            1            1
     2            2            2            2            2
     3            3            3            3            3
     4            4            4           -4           -4
     5            5           -5            5           -5
     6            6           -6           -6            6
     7            7            7           -7           -7
     8            8           -8            8           -8
     9            9           -9           -9            9
    10           10           10           10           10
    11           11           11           11           11
    12           12           12           12           12
    13           13          -13          -13           13
    14           14          -14           14          -14
    15           15           15          -15          -15
    16           16           31           26           21
    17           17           32           27           22
    18           18           33          -28          -23
    19           19          -34           29          -24
    20           20          -35          -30           25
    21           21           26           31           16
    22           22           27           32           17
    23           23           28          -33          -18
    24           24          -29           34          -19
    25           25          -30          -35           20
    26           26           21           16           31
    27           27           22           17           32
    28           28           23          -18          -33
    29           29          -24           19          -34
    30           30          -25          -20           35
    31           31           16           21           26
    32           32           17           22           27
    33           33           18          -23          -28
    34           34          -19           24          -29
    35           35          -20          -25           30
 There are    11 symmetry adapted cartesian basis functions of A   symmetry.
   1         1   1   1   1
   2         2   2   2   2
   3         3   3   3   3
   4        10  10  10  10
   5        11  11  11  11
   6        12  12  12  12
   7        16  21  26  31
   8        17  22  27  32
   9        18 -23 -28  33
  10        19 -24  29 -34
  11        20  25 -30 -35
 There are     8 symmetry adapted cartesian basis functions of B1  symmetry.
  12         6   6   6   6
  13         9   9   9   9
  14        13  13  13  13
  15        16  21 -26 -31
  16        17  22 -27 -32
  17        18 -23  28 -33
  18        19 -24 -29  34
  19        20  25  30  35
 There are     8 symmetry adapted cartesian basis functions of B2  symmetry.
  20         5   5   5   5
  21         8   8   8   8
  22        14  14  14  14
  23        16 -21  26 -31
  24        17 -22  27 -32
  25        18  23 -28 -33
  26        19  24  29  34
  27        20 -25 -30  35
 There are     8 symmetry adapted cartesian basis functions of B3  symmetry.
  28         4   4   4   4
  29         7   7   7   7
  30        15  15  15  15
  31        16 -21 -26  31
  32        17 -22 -27  32
  33        18  23  28  33
  34        19  24 -29 -34
  35        20 -25  30 -35
 Order= 1 4 3 2
 Reordered character table:
              1            2            3            4            5
     1            1            1            1            1            1
     2            4            1           -1           -1            1
     3            3            1           -1            1           -1
     4            2            1            1           -1           -1
 NEqShl: 
              1            2            3            4            5
     1            1            1            1            1            1
     2            2            2            2            2            2
     3            3            3            3            3            3
     4            4            4            4            4            4
     5            5            5            5            5            5
     6            6            6            6            6            6
     7            7           16           13           10            7
     8            8           17           14           11            8
     9            9           18           15           12            9
    10           10           13           16            7           13
    11           11           14           17            8           14
    12           12           15           18            9           15
    13           13           10            7           16           16
    14           14           11            8           17           17
    15           15           12            9           18           18
    16           16            7           10           13           10
    17           17            8           11           14           11
    18           18            9           12           15           12
              6            7            8            9           10
     1            1            1            1            1            1
     2            2            2            2            2            2
     3            3            3            3            3            3
     4            4            4            4            4            4
     5            5            5            5            5            5
     6            6            6            6            6            6
     7            7           16           10           10           13
     8            8           17           11           11           14
     9            9           18           12           12           15
    10           16            7           16           13            7
    11           17            8           17           14            8
    12           18            9           18           15            9
    13           10           13           13            7           10
    14           11           14           14            8           11
    15           12           15           15            9           12
    16           13           10            7           16           16
    17           14           11            8           17           17
    18           15           12            9           18           18
             11           12           13           14           15
     1            1            1            1            1            1
     2            2            2            2            2            2
     3            3            3            3            3            3
     4            4            4            4            4            4
     5            5            5            5            5            5
     6            6            6            6            6            6
     7           16           13           13           10           10
     8           17           14           14           11           11
     9           18           15           15           12           12
    10           10           10            7           16           13
    11           11           11            8           17           14
    12           12           12            9           18           15
    13            7           16           16            7           16
    14            8           17           17            8           17
    15            9           18           18            9           18
    16           13            7           10           13            7
    17           14            8           11           14            8
    18           15            9           12           15            9
             16           17           18           19           20
     1            1            1            1            1            1
     2            2            2            2            2            2
     3            3            3            3            3            3
     4            4            4            4            4            4
     5            5            5            5            5            5
     6            6            6            6            6            6
     7           16           16           13           16            7
     8           17           17           14           17            8
     9           18           18           15           18            9
    10            7           13           16           10           13
    11            8           14           17           11           14
    12            9           15           18           12           15
    13           10            7           10           13           10
    14           11            8           11           14           11
    15           12            9           12           15           12
    16           13           10            7            7           16
    17           14           11            8            8           17
    18           15           12            9            9           18
             21           22           23           24
     1            1            1            1            1
     2            2            2            2            2
     3            3            3            3            3
     4            4            4            4            4
     5            5            5            5            5
     6            6            6            6            6
     7            7           13           10            7
     8            8           14           11            8
     9            9           15           12            9
    10           16           10            7           10
    11           17           11            8           11
    12           18           12            9           12
    13           13            7           13           16
    14           14            8           14           17
    15           15            9           15           18
    16           10           16           16           13
    17           11           17           17           14
    18           12           18           18           15
 NEqBas: 
              1            2            3            4
     1            1            1            1            1
     2            2            2            2            2
     3            3            3            3            3
     4            4            4           -4           -4
     5            5           -5            5           -5
     6            6           -6           -6            6
     7            7            7           -7           -7
     8            8           -8            8           -8
     9            9           -9           -9            9
    10           10           10           10           10
    11           11           11           11           11
    12           12           12           12           12
    13           13          -13          -13           13
    14           14          -14           14          -14
    15           15           15          -15          -15
    16           16           31           26           21
    17           17           32           27           22
    18           18           33          -28          -23
    19           19          -34           29          -24
    20           20          -35          -30           25
    21           21           26           31           16
    22           22           27           32           17
    23           23           28          -33          -18
    24           24          -29           34          -19
    25           25          -30          -35           20
    26           26           21           16           31
    27           27           22           17           32
    28           28           23          -18          -33
    29           29          -24           19          -34
    30           30          -25          -20           35
    31           31           16           21           26
    32           32           17           22           27
    33           33           18          -23          -28
    34           34          -19           24          -29
    35           35          -20          -25           30
 There are    11 symmetry adapted basis functions of A   symmetry.
   1         1   1   1   1
   2         2   2   2   2
   3         3   3   3   3
   4        10  10  10  10
   5        11  11  11  11
   6        12  12  12  12
   7        16  21  26  31
   8        17  22  27  32
   9        18 -23 -28  33
  10        19 -24  29 -34
  11        20  25 -30 -35
 There are     8 symmetry adapted basis functions of B1  symmetry.
  12         6   6   6   6
  13         9   9   9   9
  14        13  13  13  13
  15        16  21 -26 -31
  16        17  22 -27 -32
  17        18 -23  28 -33
  18        19 -24 -29  34
  19        20  25  30  35
 There are     8 symmetry adapted basis functions of B2  symmetry.
  20         5   5   5   5
  21         8   8   8   8
  22        14  14  14  14
  23        16 -21  26 -31
  24        17 -22  27 -32
  25        18  23 -28 -33
  26        19  24  29  34
  27        20 -25 -30  35
 There are     8 symmetry adapted basis functions of B3  symmetry.
  28         4   4   4   4
  29         7   7   7   7
  30        15  15  15  15
  31        16 -21 -26  31
  32        17 -22 -27  32
  33        18  23  28  33
  34        19  24 -29 -34
  35        20 -25  30 -35
 Order= 1 4 3 2
 Reordered character table:
              1            2            3            4            5
     1            1            1            1            1            1
     2            4            1           -1           -1            1
     3            3            1           -1            1           -1
     4            2            1            1           -1           -1
    35 basis functions,    61 primitive gaussians,    35 cartesian basis functions
     5 alpha electrons        5 beta electrons
       nuclear repulsion energy        13.4978430192 Hartrees.
 IS=     1 IAt=     1 ISR=     1 T=0 IP=      1 IndIP=      1 IndIPD=      0 C=  3.646002D-01  0.000000D+00                             NZ=T
 IS=     1 IAt=     1 ISR=     1 T=0 IP=      2 IndIP=      2 IndIPD=      1 C=  6.769764D-01  0.000000D+00                             NZ=T
 IS=     1 IAt=     1 ISR=     1 T=0 IP=      3 IndIP=      3 IndIPD=      2 C=  1.134796D+00  0.000000D+00                             NZ=T
 IS=     1 IAt=     1 ISR=     1 T=0 IP=      4 IndIP=      4 IndIPD=      3 C=  1.658465D+00  0.000000D+00                             NZ=T
 IS=     1 IAt=     1 ISR=     1 T=0 IP=      5 IndIP=      5 IndIPD=      4 C=  1.930363D+00  0.000000D+00                             NZ=T
 IS=     1 IAt=     1 ISR=     1 T=0 IP=      6 IndIP=      6 IndIPD=      5 C=  1.456292D+00  0.000000D+00                             NZ=T
 IS=     1 IAt=     1 ISR=     1 T=0 IP=      7 IndIP=      7 IndIPD=      6 C=  4.432682D-01  0.000000D+00                             NZ=T
 IS=     2 IAt=     1 ISR=     2 T=0 IP=      1 IndIP=      8 IndIPD=      0 C=  4.065734D-03  0.000000D+00                             NZ=T
 IS=     2 IAt=     1 ISR=     2 T=0 IP=      2 IndIP=      9 IndIPD=      1 C=  1.162837D-02  0.000000D+00                             NZ=T
 IS=     2 IAt=     1 ISR=     2 T=0 IP=      3 IndIP=     10 IndIPD=      2 C= -4.193233D-02  0.000000D+00                             NZ=T
 IS=     2 IAt=     1 ISR=     2 T=0 IP=      4 IndIP=     11 IndIPD=      3 C= -6.271471D-02  0.000000D+00                             NZ=T
 IS=     2 IAt=     1 ISR=     2 T=0 IP=      5 IndIP=     12 IndIPD=      4 C= -3.424016D-01  0.000000D+00                             NZ=T
 IS=     2 IAt=     1 ISR=     2 T=0 IP=      6 IndIP=     13 IndIPD=      5 C= -2.027279D-01  0.000000D+00                             NZ=T
 IS=     2 IAt=     1 ISR=     2 T=0 IP=      7 IndIP=     14 IndIPD=      6 C=  4.808845D-01  0.000000D+00                             NZ=T
 IS=     3 IAt=     1 ISR=     3 T=0 IP=      1 IndIP=     15 IndIPD=      0 C=  1.799636D-01  0.000000D+00                             NZ=T
 IS=     4 IAt=     1 ISR=     4 T=1 IP=      1 IndIP=     16 IndIPD=      0 C=  0.000000D+00  1.343737D+00                             NZ=T
 IS=     4 IAt=     1 ISR=     4 T=1 IP=      2 IndIP=     17 IndIPD=      1 C=  0.000000D+00  1.063168D+00                             NZ=T
 IS=     4 IAt=     1 ISR=     4 T=1 IP=      3 IndIP=     18 IndIPD=      2 C=  0.000000D+00  5.082318D-01                             NZ=T
 IS=     5 IAt=     1 ISR=     5 T=1 IP=      1 IndIP=     19 IndIPD=      0 C=  0.000000D+00  1.349497D-01                             NZ=T
 IS=     6 IAt=     1 ISR=     6 T=2 IP=      1 IndIP=     20 IndIPD=      1 C=  0.000000D+00  0.000000D+00  5.781548D-01  0.000000D+00 NZ=T
 IS=     7 IAt=     2 ISR=     1 T=0 IP=      1 IndIP=     21 IndIPD=      0 C=  1.635484D-01  0.000000D+00                             NZ=T
 IS=     7 IAt=     2 ISR=     1 T=0 IP=      2 IndIP=     22 IndIPD=      1 C=  2.774175D-01  0.000000D+00                             NZ=T
 IS=     7 IAt=     2 ISR=     1 T=0 IP=      3 IndIP=     23 IndIPD=      2 C=  3.157493D-01  0.000000D+00                             NZ=T
 IS=     8 IAt=     2 ISR=     2 T=0 IP=      1 IndIP=     24 IndIPD=      0 C=  1.471228D-01  0.000000D+00                             NZ=T
 IS=     9 IAt=     2 ISR=     3 T=1 IP=      1 IndIP=     25 IndIPD=      0 C=  0.000000D+00  9.568814D-01                             NZ=T
 IS=    10 IAt=     3 ISR=     1 T=0 IP=      1 IndIP=     26 IndIPD=      0 C=  1.635484D-01  0.000000D+00                             NZ=T
 IS=    10 IAt=     3 ISR=     1 T=0 IP=      2 IndIP=     27 IndIPD=      1 C=  2.774175D-01  0.000000D+00                             NZ=T
 IS=    10 IAt=     3 ISR=     1 T=0 IP=      3 IndIP=     28 IndIPD=      2 C=  3.157493D-01  0.000000D+00                             NZ=T
 IS=    11 IAt=     3 ISR=     2 T=0 IP=      1 IndIP=     29 IndIPD=      0 C=  1.471228D-01  0.000000D+00                             NZ=T
 IS=    12 IAt=     3 ISR=     3 T=1 IP=      1 IndIP=     30 IndIPD=      0 C=  0.000000D+00  9.568814D-01                             NZ=T
 IS=    13 IAt=     4 ISR=     1 T=0 IP=      1 IndIP=     31 IndIPD=      0 C=  1.635484D-01  0.000000D+00                             NZ=T
 IS=    13 IAt=     4 ISR=     1 T=0 IP=      2 IndIP=     32 IndIPD=      1 C=  2.774175D-01  0.000000D+00                             NZ=T
 IS=    13 IAt=     4 ISR=     1 T=0 IP=      3 IndIP=     33 IndIPD=      2 C=  3.157493D-01  0.000000D+00                             NZ=T
 IS=    14 IAt=     4 ISR=     2 T=0 IP=      1 IndIP=     34 IndIPD=      0 C=  1.471228D-01  0.000000D+00                             NZ=T
 IS=    15 IAt=     4 ISR=     3 T=1 IP=      1 IndIP=     35 IndIPD=      0 C=  0.000000D+00  9.568814D-01                             NZ=T
 IS=    16 IAt=     5 ISR=     1 T=0 IP=      1 IndIP=     36 IndIPD=      0 C=  1.635484D-01  0.000000D+00                             NZ=T
 IS=    16 IAt=     5 ISR=     1 T=0 IP=      2 IndIP=     37 IndIPD=      1 C=  2.774175D-01  0.000000D+00                             NZ=T
 IS=    16 IAt=     5 ISR=     1 T=0 IP=      3 IndIP=     38 IndIPD=      2 C=  3.157493D-01  0.000000D+00                             NZ=T
 IS=    17 IAt=     5 ISR=     2 T=0 IP=      1 IndIP=     39 IndIPD=      0 C=  1.471228D-01  0.000000D+00                             NZ=T
 IS=    18 IAt=     5 ISR=     3 T=1 IP=      1 IndIP=     40 IndIPD=      0 C=  0.000000D+00  9.568814D-01                             NZ=T
 IExCor=    0 DFT=F Ex=HF Corr=None ExCW=0 ScaHFX=  1.000000
 ScaDFX=  1.000000  1.000000  1.000000  1.000000 ScalE2=  1.000000  1.000000
 IRadAn=      0 IRanWt=     -1 IRanGd=            0 ICorTp=0 IEmpDi=  4
 NAtoms=    5 NActive=    5 NUniq=    2 SFac= 4.00D+00 NAtFMM=   60 NAOKFM=F Big=F
 Integral buffers will be    131072 words long.
 Raffenetti 1 integral format.
 Two-electron integral symmetry is turned on.
 Pair potential:
 Leave Link  301 at Fri May 29 14:34:31 2015, MaxMem=    33554432 cpu:               0.1 elap:               0.1
 (Enter /home/gauss/gdvi02/gdv/l302.exe)
 NPDir=0 NMtPBC=     1 NCelOv=     1 NCel=       1 NClECP=     1 NCelD=      1
         NCelK=      1 NCelE2=     1 NClLst=     1 CellRange=     0.0.
 One-electron integrals computed using PRISM.
 One-electron integral symmetry used in STVInt
 Entering OneElI...
 OneElI was handed    33552457 working-precision words.
 Calculate overlap and kinetic energy integrals
    NBasis =  35  MinDer = 0  MaxDer = 0
 Requested accuracy = 0.1000D-12
 ShPair: Thresh= 1.00D-13 NBox=     0 BxSize= 0.00D+00 RnKept= 3.35D+00
         NSMCal=                  171 NSMKep=                 171
 Symmetry will be used
 Overlap and Kinetic Integrals          
 Derivative Range = 0 to 2  Logicals = T F F F F F
 The Identity operator will be used
 PrsmSu:  NPrtUS=   1 ThrOK=F IAlg=1 NPAlg=1 LenDen=           0.
 Prism:   IPart=     0 DynPar=F LinDyn=F Incr=           1.
 PRISM was handed    33528359 working-precision words and   171 shell-pairs
 PRISM will use Minimum- Mop paths
 [0] accuracy = 0.10D-12   Chebyshev Delta = 0.12D-02   Critical T = 28.20   # of points =  11979


           Zone         Bra Derivative Range     Ket Derivative Range
           ==========================================================
             1                 0 to 2                   0 to 0
           ==========================================================

                             -------------------
                             The (dd|ss) Classes
 Not enough memory for any path:
 MxKBra=    1 MxKKet=    1 Memory=    33499082.
                             -------------------

       Available PRISM Paths: 29

    No. of target [m0|n0]   =    84
    No. of locations needed =    86

       T1    T2    T3    T4    T5    T6    T7    T8    T9   T10   T11   T12
      554 99999 99999 99999     0     0     0     0     0     0     0     0
   C1   C2   C3   C4   C5   C6   C7   C8   C9  C10  C11  C12  C13  C14  C15  C16
9999999999999999999999999999999999999999    0    0    0    0  360  360  360  360
    0    0    0    0    0    0    0    0    0    0    0    0  360  360  360  360

                   VR1     cost =    1042
                   Bra-TRn cost =    2616
                   Ket-TRn cost =       0

                   Space needed for drivers          =   32836
                   Space needed for driver formation =   51522

                   KBra   KKet   Path     Mops    Wds/S4    MaxCom 

                   C37 =       0
                   C38 =       0
 Prsmar:  LTot= 6 LBK=  4  0 KBK=     1     1 Path=29 Kost=        3774 NPerS4=         714 nW0=         373 nW1=         151 nW2=         373
          nW0X=           0 NPS4B=         180 jNext=       32875 NLeft=    33495481 jEnd=      196382 LenV=    33528359 MaxCom=         229

                             -------------------
                             The (dp|ss) Classes
 Not enough memory for any path:
 MxKBra=    3 MxKKet=    1 Memory=    33513992.
                             -------------------

       Available PRISM Paths: 29

    No. of target [m0|n0]   =    56
    No. of locations needed =    58

       T1    T2    T3    T4    T5    T6    T7    T8    T9   T10   T11   T12
      342 99999 99999 99999     0     0     0     0     0     0     0     0
   C1   C2   C3   C4   C5   C6   C7   C8   C9  C10  C11  C12  C13  C14  C15  C16
9999999999999999999999999999999999999999    0    0    0    0  180  180  180  180
    0    0    0    0    0    0    0    0    0    0    0    0  180  180  180  180

                   VR1     cost =     638
                   Bra-TRn cost =    1062
                   Ket-TRn cost =       0

                   Space needed for drivers          =   16454
                   Space needed for driver formation =   25855

                   KBra   KKet   Path     Mops    Wds/S4    MaxCom 

                   C37 =       0
                   C38 =       0
 Prsmar:  LTot= 5 LBK=  3  0 KBK=     1     1 Path=29 Kost=        1767 NPerS4=         440 nW0=         187 nW1=          87 nW2=         187
          nW0X=           0 NPS4B=         116 jNext=       16502 NLeft=    33511854 jEnd=      180183 LenV=    33528359 MaxCom=         372
 Prsmar:  LTot= 5 LBK=  3  0 KBK=     3     1 Path=29 Kost=        3351 NPerS4=         488 nW0=         187 nW1=          87 nW2=         187
          nW0X=           0 NPS4B=         162 jNext=       16497 NLeft=    33511859 jEnd=      179978 LenV=    33528359 MaxCom=         335

                             -------------------
                             The (pp|ss) Classes
 Not enough memory for any path:
 MxKBra=    9 MxKKet=    1 Memory=    33521004.
                             -------------------

       Available PRISM Paths: 29

    No. of target [m0|n0]   =    35
    No. of locations needed =    36

       T1    T2    T3    T4    T5    T6    T7    T8    T9   T10   T11   T12
      189 99999 99999 99999     0     0     0     0     0     0     0     0
   C1   C2   C3   C4   C5   C6   C7   C8   C9  C10  C11  C12  C13  C14  C15  C16
9999999999999999999999999999999999999999    0    0    0    0   90   90   90   90
    0    0    0    0    0    0    0    0    0    0    0    0   90   90   90   90

                   VR1     cost =     349
                   Bra-TRn cost =     516
                   Ket-TRn cost =       0

                   Space needed for drivers          =    8539
                   Space needed for driver formation =   13711

                   KBra   KKet   Path     Mops    Wds/S4    MaxCom 

                   C37 =       0
                   C38 =       0
 Prsmar:  LTot= 4 LBK=  2  0 KBK=     1     1 Path=29 Kost=         909 NPerS4=         289 nW0=          93 nW1=          54 nW2=          93
          nW0X=           0 NPS4B=          83 jNext=        8609 NLeft=    33519747 jEnd=      172184 LenV=    33528359 MaxCom=         566
 Prsmar:  LTot= 4 LBK=  2  0 KBK=     3     1 Path=29 Kost=        1803 NPerS4=         352 nW0=         108 nW1=          54 nW2=         108
          nW0X=           0 NPS4B=         129 jNext=        8607 NLeft=    33519749 jEnd=      172288 LenV=    33528359 MaxCom=         465
 Prsmar:  LTot= 4 LBK=  2  0 KBK=     9     1 Path=29 Kost=        4485 NPerS4=         712 nW0=         324 nW1=          54 nW2=         324
          nW0X=           0 NPS4B=         267 jNext=        8594 NLeft=    33519762 jEnd=      172355 LenV=    33528359 MaxCom=         230

                             -------------------
                             The (ds|ss) Classes
 Not enough memory for any path:
 MxKBra=    7 MxKKet=    1 Memory=    33523582.
                             -------------------

       Available PRISM Paths: 29

    No. of target [m0|n0]   =    35
    No. of locations needed =    36

       T1    T2    T3    T4    T5    T6    T7    T8    T9   T10   T11   T12
      189 99999 99999 99999     0     0     0     0     0     0     0     0
   C1   C2   C3   C4   C5   C6   C7   C8   C9  C10  C11  C12  C13  C14  C15  C16
9999999999999999999999999999999999999999    0    0    0    0   60   60   60   60
    0    0    0    0    0    0    0    0    0    0    0    0   60   60   60   60

                   VR1     cost =     349
                   Bra-TRn cost =     190
                   Ket-TRn cost =       0

                   Space needed for drivers          =    5815
                   Space needed for driver formation =    7983

                   KBra   KKet   Path     Mops    Wds/S4    MaxCom 

                   C37 =       0
                   C38 =       0
 Prsmar:  LTot= 4 LBK=  2  0 KBK=     1     1 Path=29 Kost=         570 NPerS4=         248 nW0=          63 nW1=          41 nW2=          63
          nW0X=           0 NPS4B=          64 jNext=        5863 NLeft=    33522493 jEnd=      169544 LenV=    33528359 MaxCom=         660
 Prsmar:  LTot= 4 LBK=  2  0 KBK=     3     1 Path=29 Kost=        1412 NPerS4=         341 nW0=         108 nW1=          41 nW2=         108
          nW0X=           0 NPS4B=         110 jNext=        5876 NLeft=    33522480 jEnd=      169557 LenV=    33528359 MaxCom=         480
 Prsmar:  LTot= 4 LBK=  2  0 KBK=     7     1 Path=29 Kost=        3096 NPerS4=         581 nW0=         252 nW1=          41 nW2=         252
          nW0X=           0 NPS4B=         202 jNext=        5881 NLeft=    33522475 jEnd=      169143 LenV=    33528359 MaxCom=         281

                             -------------------
                             The (ps|ss) Classes
 Not enough memory for any path:
 MxKBra=   21 MxKKet=    1 Memory=    33525923.
                             -------------------

       Available PRISM Paths: 29

    No. of target [m0|n0]   =    20
    No. of locations needed =    21

       T1    T2    T3    T4    T5    T6    T7    T8    T9   T10   T11   T12
       96 99999 99999 99999     0     0     0     0     0     0     0     0
   C1   C2   C3   C4   C5   C6   C7   C8   C9  C10  C11  C12  C13  C14  C15  C16
9999999999999999999999999999999999999999    0    0    0    0   30   30   30   30
    0    0    0    0    0    0    0    0    0    0    0    0   30   30   30   30

                   VR1     cost =     174
                   Bra-TRn cost =      80
                   Ket-TRn cost =       0

                   Space needed for drivers          =    2987
                   Space needed for driver formation =    4180

                   KBra   KKet   Path     Mops    Wds/S4    MaxCom 

                   C37 =       0
                   C38 =       0
 Prsmar:  LTot= 3 LBK=  1  0 KBK=     1     1 Path=29 Kost=         273 NPerS4=         174 nW0=          31 nW1=          23 nW2=          31
          nW0X=           0 NPS4B=          46 jNext=        3078 NLeft=    33525278 jEnd=      166813 LenV=    33528359 MaxCom=         941
 Prsmar:  LTot= 3 LBK=  1  0 KBK=     3     1 Path=29 Kost=         705 NPerS4=         254 nW0=          63 nW1=          23 nW2=          63
          nW0X=           0 NPS4B=          92 jNext=        3178 NLeft=    33525178 jEnd=      167009 LenV=    33528359 MaxCom=         645
 Prsmar:  LTot= 3 LBK=  1  0 KBK=     7     1 Path=29 Kost=        1569 NPerS4=         434 nW0=         147 nW1=          23 nW2=         147
          nW0X=           0 NPS4B=         184 jNext=        3167 NLeft=    33525189 jEnd=      166786 LenV=    33528359 MaxCom=         377
 Prsmar:  LTot= 3 LBK=  1  0 KBK=     9     1 Path=29 Kost=        2001 NPerS4=         524 nW0=         189 nW1=          23 nW2=         189
          nW0X=           0 NPS4B=         230 jNext=        3096 NLeft=    33525260 jEnd=      166585 LenV=    33528359 MaxCom=         312
 Prsmar:  LTot= 3 LBK=  1  0 KBK=    21     1 Path=29 Kost=        4593 NPerS4=        1064 nW0=         441 nW1=          23 nW2=         441
          nW0X=           0 NPS4B=         506 jNext=        3109 NLeft=    33525247 jEnd=      165902 LenV=    33528359 MaxCom=         153

                             -------------------
                             The (ss|ss) Classes
 Not enough memory for any path:
 MxKBra=   49 MxKKet=    1 Memory=    33527360.
                             -------------------

       Available PRISM Paths: 29

    No. of target [m0|n0]   =    10
    No. of locations needed =    11

       T1    T2    T3    T4    T5    T6    T7    T8    T9   T10   T11   T12
       39 99999 99999 99999     0     0     0     0     0     0     0     0
   C1   C2   C3   C4   C5   C6   C7   C8   C9  C10  C11  C12  C13  C14  C15  C16
9999999999999999999999999999999999999999    0    0    0    0   10   10   10   10
    0    0    0    0    0    0    0    0    0    0    0    0   10   10   10   10

                   VR1     cost =      67
                   Bra-TRn cost =       9
                   Ket-TRn cost =       0

                   Space needed for drivers          =    1225
                   Space needed for driver formation =    1751

                   KBra   KKet   Path     Mops    Wds/S4    MaxCom 

                   C37 =       0
                   C38 =       0
 Prsmar:  LTot= 2 LBK=  0  0 KBK=     1     1 Path=29 Kost=          86 NPerS4=         126 nW0=          11 nW1=          11 nW2=          11
          nW0X=           0 NPS4B=          34 jNext=        1295 NLeft=    33527061 jEnd=      165096 LenV=    33528359 MaxCom=        1300
 Prsmar:  LTot= 2 LBK=  0  0 KBK=     3     1 Path=29 Kost=         262 NPerS4=         196 nW0=          33 nW1=          11 nW2=          33
          nW0X=           0 NPS4B=          80 jNext=        1384 NLeft=    33526972 jEnd=      165045 LenV=    33528359 MaxCom=         835
 Prsmar:  LTot= 2 LBK=  0  0 KBK=     9     1 Path=29 Kost=         790 NPerS4=         406 nW0=          99 nW1=          11 nW2=          99
          nW0X=           0 NPS4B=         218 jNext=        1334 NLeft=    33527022 jEnd=      164953 LenV=    33528359 MaxCom=         403
 Prsmar:  LTot= 2 LBK=  0  0 KBK=     8     1 Path=29 Kost=         702 NPerS4=         371 nW0=          88 nW1=          11 nW2=          88
          nW0X=           0 NPS4B=         195 jNext=        1358 NLeft=    33526998 jEnd=      164970 LenV=    33528359 MaxCom=         441
 Prsmar:  LTot= 2 LBK=  0  0 KBK=     7     1 Path=29 Kost=         614 NPerS4=         336 nW0=          77 nW1=          11 nW2=          77
          nW0X=           0 NPS4B=         172 jNext=        1405 NLeft=    33526951 jEnd=      165038 LenV=    33528359 MaxCom=         487
 Prsmar:  LTot= 2 LBK=  0  0 KBK=    18     1 Path=29 Kost=        1582 NPerS4=         721 nW0=         198 nW1=          11 nW2=         198
          nW0X=           0 NPS4B=         425 jNext=        1406 NLeft=    33526950 jEnd=      165074 LenV=    33528359 MaxCom=         227
 Prsmar:  LTot= 2 LBK=  0  0 KBK=    49     1 Path=29 Kost=        4310 NPerS4=        1806 nW0=         539 nW1=          11 nW2=         539
          nW0X=           0 NPS4B=        1138 jNext=        1558 NLeft=    33526798 jEnd=      164099 LenV=    33528359 MaxCom=          90
 Prsmar:  LTot= 2 LBK=  0  0 KBK=    19     1 Path=29 Kost=        1670 NPerS4=         756 nW0=         209 nW1=          11 nW2=         209
          nW0X=           0 NPS4B=         448 jNext=        1414 NLeft=    33526942 jEnd=      164711 LenV=    33528359 MaxCom=         216
 IPart=  0 NShTot=          51 NBatch=          22 AvBLen=         2.3
 PrSmSu:  NxtVal=              2.
 *** Overlap *** 
                1             2             3             4             5 
      1  0.100000D+01
      2  0.206150D+00  0.100000D+01
      3  0.179607D+00  0.800420D+00  0.100000D+01
      4  0.000000D+00  0.000000D+00  0.000000D+00  0.100000D+01
      5  0.000000D+00  0.000000D+00  0.000000D+00  0.000000D+00  0.100000D+01
      6  0.000000D+00  0.000000D+00  0.000000D+00  0.000000D+00  0.000000D+00
      7  0.000000D+00  0.000000D+00  0.000000D+00  0.530759D+00  0.000000D+00
      8  0.000000D+00  0.000000D+00  0.000000D+00  0.000000D+00  0.530759D+00
      9  0.000000D+00  0.000000D+00  0.000000D+00  0.000000D+00  0.000000D+00
     10  0.490957D-01  0.632354D+00  0.682951D+00  0.000000D+00  0.000000D+00
     11  0.490957D-01  0.632354D+00  0.682951D+00  0.000000D+00  0.000000D+00
     12  0.490957D-01  0.632354D+00  0.682951D+00  0.000000D+00  0.000000D+00
     13  0.000000D+00  0.000000D+00  0.000000D+00  0.000000D+00  0.000000D+00
     14  0.000000D+00  0.000000D+00  0.000000D+00  0.000000D+00  0.000000D+00
     15  0.000000D+00  0.000000D+00  0.000000D+00  0.000000D+00  0.000000D+00
     16  0.532956D-01  0.342076D+00  0.461365D+00  0.229079D+00  0.229079D+00
     17  0.902828D-01  0.474862D+00  0.737750D+00  0.120720D+00  0.120720D+00
     18 -0.586557D-01 -0.234448D+00 -0.141194D+00  0.126301D-01 -0.212395D+00
     19 -0.586557D-01 -0.234448D+00 -0.141194D+00 -0.212395D+00  0.126301D-01
     20 -0.586557D-01 -0.234448D+00 -0.141194D+00 -0.212395D+00 -0.212395D+00
     21  0.532956D-01  0.342076D+00  0.461365D+00 -0.229079D+00 -0.229079D+00
     22  0.902828D-01  0.474862D+00  0.737750D+00 -0.120720D+00 -0.120720D+00
     23  0.586557D-01  0.234448D+00  0.141194D+00  0.126301D-01 -0.212395D+00
     24  0.586557D-01  0.234448D+00  0.141194D+00 -0.212395D+00  0.126301D-01
     25 -0.586557D-01 -0.234448D+00 -0.141194D+00  0.212395D+00  0.212395D+00
     26  0.532956D-01  0.342076D+00  0.461365D+00 -0.229079D+00  0.229079D+00
     27  0.902828D-01  0.474862D+00  0.737750D+00 -0.120720D+00  0.120720D+00
     28  0.586557D-01  0.234448D+00  0.141194D+00  0.126301D-01  0.212395D+00
     29 -0.586557D-01 -0.234448D+00 -0.141194D+00  0.212395D+00  0.126301D-01
     30  0.586557D-01  0.234448D+00  0.141194D+00 -0.212395D+00  0.212395D+00
     31  0.532956D-01  0.342076D+00  0.461365D+00  0.229079D+00 -0.229079D+00
     32  0.902828D-01  0.474862D+00  0.737750D+00  0.120720D+00 -0.120720D+00
     33 -0.586557D-01 -0.234448D+00 -0.141194D+00  0.126301D-01  0.212395D+00
     34  0.586557D-01  0.234448D+00  0.141194D+00  0.212395D+00  0.126301D-01
     35  0.586557D-01  0.234448D+00  0.141194D+00  0.212395D+00 -0.212395D+00
                6             7             8             9            10 
      6  0.100000D+01
      7  0.000000D+00  0.100000D+01
      8  0.000000D+00  0.000000D+00  0.100000D+01
      9  0.530759D+00  0.000000D+00  0.000000D+00  0.100000D+01
     10  0.000000D+00  0.000000D+00  0.000000D+00  0.000000D+00  0.100000D+01
     11  0.000000D+00  0.000000D+00  0.000000D+00  0.000000D+00  0.333333D+00
     12  0.000000D+00  0.000000D+00  0.000000D+00  0.000000D+00  0.333333D+00
     13  0.000000D+00  0.000000D+00  0.000000D+00  0.000000D+00  0.000000D+00
     14  0.000000D+00  0.000000D+00  0.000000D+00  0.000000D+00  0.000000D+00
     15  0.000000D+00  0.000000D+00  0.000000D+00  0.000000D+00  0.000000D+00
     16  0.229079D+00  0.325531D+00  0.325531D+00  0.325531D+00  0.325737D+00
     17  0.120720D+00  0.306587D+00  0.306587D+00  0.306587D+00  0.446540D+00
     18 -0.212395D+00  0.189997D+00 -0.103086D+00 -0.103086D+00  0.552778D-01
     19 -0.212395D+00 -0.103086D+00  0.189997D+00 -0.103086D+00 -0.246798D+00
     20  0.126301D-01 -0.103086D+00 -0.103086D+00  0.189997D+00 -0.246798D+00
     21  0.229079D+00 -0.325531D+00 -0.325531D+00  0.325531D+00  0.325737D+00
     22  0.120720D+00 -0.306587D+00 -0.306587D+00  0.306587D+00  0.446540D+00
     23  0.212395D+00  0.189997D+00 -0.103086D+00  0.103086D+00 -0.552778D-01
     24  0.212395D+00 -0.103086D+00  0.189997D+00  0.103086D+00  0.246798D+00
     25  0.126301D-01  0.103086D+00  0.103086D+00  0.189997D+00 -0.246798D+00
     26 -0.229079D+00 -0.325531D+00  0.325531D+00 -0.325531D+00  0.325737D+00
     27 -0.120720D+00 -0.306587D+00  0.306587D+00 -0.306587D+00  0.446540D+00
     28 -0.212395D+00  0.189997D+00  0.103086D+00 -0.103086D+00 -0.552778D-01
     29  0.212395D+00  0.103086D+00  0.189997D+00  0.103086D+00 -0.246798D+00
     30  0.126301D-01 -0.103086D+00  0.103086D+00  0.189997D+00  0.246798D+00
     31 -0.229079D+00  0.325531D+00 -0.325531D+00 -0.325531D+00  0.325737D+00
     32 -0.120720D+00  0.306587D+00 -0.306587D+00 -0.306587D+00  0.446540D+00
     33  0.212395D+00  0.189997D+00  0.103086D+00  0.103086D+00  0.552778D-01
     34 -0.212395D+00  0.103086D+00  0.189997D+00 -0.103086D+00  0.246798D+00
     35  0.126301D-01  0.103086D+00 -0.103086D+00  0.189997D+00  0.246798D+00
               11            12            13            14            15 
     11  0.100000D+01
     12  0.333333D+00  0.100000D+01
     13  0.000000D+00  0.000000D+00  0.100000D+01
     14  0.000000D+00  0.000000D+00  0.000000D+00  0.100000D+01
     15  0.000000D+00  0.000000D+00  0.000000D+00  0.000000D+00  0.100000D+01
     16  0.325737D+00  0.325737D+00  0.233954D+00  0.233954D+00  0.233954D+00
     17  0.446540D+00  0.446540D+00  0.452011D-01  0.452011D-01  0.452011D-01
     18 -0.246798D+00 -0.246798D+00  0.320518D-01  0.320518D-01 -0.229554D+00
     19  0.552778D-01 -0.246798D+00  0.320518D-01 -0.229554D+00  0.320518D-01
     20 -0.246798D+00  0.552778D-01 -0.229554D+00  0.320518D-01  0.320518D-01
     21  0.325737D+00  0.325737D+00  0.233954D+00 -0.233954D+00 -0.233954D+00
     22  0.446540D+00  0.446540D+00  0.452011D-01 -0.452011D-01 -0.452011D-01
     23  0.246798D+00  0.246798D+00 -0.320518D-01  0.320518D-01 -0.229554D+00
     24 -0.552778D-01  0.246798D+00 -0.320518D-01 -0.229554D+00  0.320518D-01
     25 -0.246798D+00  0.552778D-01 -0.229554D+00 -0.320518D-01 -0.320518D-01
     26  0.325737D+00  0.325737D+00 -0.233954D+00  0.233954D+00 -0.233954D+00
     27  0.446540D+00  0.446540D+00 -0.452011D-01  0.452011D-01 -0.452011D-01
     28  0.246798D+00  0.246798D+00  0.320518D-01 -0.320518D-01 -0.229554D+00
     29  0.552778D-01 -0.246798D+00 -0.320518D-01 -0.229554D+00 -0.320518D-01
     30  0.246798D+00 -0.552778D-01 -0.229554D+00 -0.320518D-01  0.320518D-01
     31  0.325737D+00  0.325737D+00 -0.233954D+00 -0.233954D+00  0.233954D+00
     32  0.446540D+00  0.446540D+00 -0.452011D-01 -0.452011D-01  0.452011D-01
     33 -0.246798D+00 -0.246798D+00 -0.320518D-01 -0.320518D-01 -0.229554D+00
     34 -0.552778D-01  0.246798D+00  0.320518D-01 -0.229554D+00 -0.320518D-01
     35  0.246798D+00 -0.552778D-01 -0.229554D+00  0.320518D-01 -0.320518D-01
               16            17            18            19            20 
     16  0.100000D+01
     17  0.684860D+00  0.100000D+01
     18  0.000000D+00  0.000000D+00  0.100000D+01
     19  0.000000D+00  0.000000D+00  0.000000D+00  0.100000D+01
     20  0.000000D+00  0.000000D+00  0.000000D+00  0.000000D+00  0.100000D+01
     21  0.593770D-01  0.228962D+00 -0.556263D-01 -0.556263D-01  0.000000D+00
     22  0.228962D+00  0.504702D+00 -0.105694D+00 -0.105694D+00  0.000000D+00
     23  0.556263D-01  0.105694D+00 -0.522616D-01 -0.692590D-01  0.000000D+00
     24  0.556263D-01  0.105694D+00 -0.692590D-01 -0.522616D-01  0.000000D+00
     25  0.000000D+00  0.000000D+00  0.000000D+00  0.000000D+00  0.169973D-01
     26  0.593770D-01  0.228962D+00 -0.556263D-01  0.000000D+00 -0.556263D-01
     27  0.228962D+00  0.504702D+00 -0.105694D+00  0.000000D+00 -0.105694D+00
     28  0.556263D-01  0.105694D+00 -0.522616D-01  0.000000D+00 -0.692590D-01
     29  0.000000D+00  0.000000D+00  0.000000D+00  0.169973D-01  0.000000D+00
     30  0.556263D-01  0.105694D+00 -0.692590D-01  0.000000D+00 -0.522616D-01
     31  0.593770D-01  0.228962D+00  0.000000D+00 -0.556263D-01 -0.556263D-01
     32  0.228962D+00  0.504702D+00  0.000000D+00 -0.105694D+00 -0.105694D+00
     33  0.000000D+00  0.000000D+00  0.169973D-01  0.000000D+00  0.000000D+00
     34  0.556263D-01  0.105694D+00  0.000000D+00 -0.522616D-01 -0.692590D-01
     35  0.556263D-01  0.105694D+00  0.000000D+00 -0.692590D-01 -0.522616D-01
               21            22            23            24            25 
     21  0.100000D+01
     22  0.684860D+00  0.100000D+01
     23  0.000000D+00  0.000000D+00  0.100000D+01
     24  0.000000D+00  0.000000D+00  0.000000D+00  0.100000D+01
     25  0.000000D+00  0.000000D+00  0.000000D+00  0.000000D+00  0.100000D+01
     26  0.593770D-01  0.228962D+00  0.000000D+00  0.556263D-01 -0.556263D-01
     27  0.228962D+00  0.504702D+00  0.000000D+00  0.105694D+00 -0.105694D+00
     28  0.000000D+00  0.000000D+00  0.169973D-01  0.000000D+00  0.000000D+00
     29 -0.556263D-01 -0.105694D+00  0.000000D+00 -0.522616D-01  0.692590D-01
     30  0.556263D-01  0.105694D+00  0.000000D+00  0.692590D-01 -0.522616D-01
     31  0.593770D-01  0.228962D+00  0.556263D-01  0.000000D+00 -0.556263D-01
     32  0.228962D+00  0.504702D+00  0.105694D+00  0.000000D+00 -0.105694D+00
     33 -0.556263D-01 -0.105694D+00 -0.522616D-01  0.000000D+00  0.692590D-01
     34  0.000000D+00  0.000000D+00  0.000000D+00  0.169973D-01  0.000000D+00
     35  0.556263D-01  0.105694D+00  0.692590D-01  0.000000D+00 -0.522616D-01
               26            27            28            29            30 
     26  0.100000D+01
     27  0.684860D+00  0.100000D+01
     28  0.000000D+00  0.000000D+00  0.100000D+01
     29  0.000000D+00  0.000000D+00  0.000000D+00  0.100000D+01
     30  0.000000D+00  0.000000D+00  0.000000D+00  0.000000D+00  0.100000D+01
     31  0.593770D-01  0.228962D+00  0.556263D-01 -0.556263D-01  0.000000D+00
     32  0.228962D+00  0.504702D+00  0.105694D+00 -0.105694D+00  0.000000D+00
     33 -0.556263D-01 -0.105694D+00 -0.522616D-01  0.692590D-01  0.000000D+00
     34  0.556263D-01  0.105694D+00  0.692590D-01 -0.522616D-01  0.000000D+00
     35  0.000000D+00  0.000000D+00  0.000000D+00  0.000000D+00  0.169973D-01
               31            32            33            34            35 
     31  0.100000D+01
     32  0.684860D+00  0.100000D+01
     33  0.000000D+00  0.000000D+00  0.100000D+01
     34  0.000000D+00  0.000000D+00  0.000000D+00  0.100000D+01
     35  0.000000D+00  0.000000D+00  0.000000D+00  0.000000D+00  0.100000D+01
 *** Kinetic Energy *** 
                1             2             3             4             5 
      1  0.161698D+02
      2 -0.148953D+01  0.972956D+00
      3  0.829743D-01  0.288252D+00  0.239400D+00
      4  0.000000D+00  0.000000D+00  0.000000D+00  0.215838D+01
      5  0.000000D+00  0.000000D+00  0.000000D+00  0.000000D+00  0.215838D+01
      6  0.000000D+00  0.000000D+00  0.000000D+00  0.000000D+00  0.000000D+00
      7  0.000000D+00  0.000000D+00  0.000000D+00  0.321818D+00  0.000000D+00
      8  0.000000D+00  0.000000D+00  0.000000D+00  0.000000D+00  0.321818D+00
      9  0.000000D+00  0.000000D+00  0.000000D+00  0.000000D+00  0.000000D+00
     10 -0.340847D+00  0.284284D+00  0.204419D+00  0.000000D+00  0.000000D+00
     11 -0.340847D+00  0.284284D+00  0.204419D+00  0.000000D+00  0.000000D+00
     12 -0.340847D+00  0.284284D+00  0.204419D+00  0.000000D+00  0.000000D+00
     13  0.000000D+00  0.000000D+00  0.000000D+00  0.000000D+00  0.000000D+00
     14  0.000000D+00  0.000000D+00  0.000000D+00  0.000000D+00  0.000000D+00
     15  0.000000D+00  0.000000D+00  0.000000D+00  0.000000D+00  0.000000D+00
     16 -0.146434D-01  0.738630D-01  0.110226D+00  0.152564D+00  0.152564D+00
     17  0.214494D-01  0.101181D+00  0.123381D+00  0.506911D-01  0.506911D-01
     18  0.103974D-01 -0.189211D+00 -0.720595D-01 -0.133793D+00 -0.288520D+00
     19  0.103974D-01 -0.189211D+00 -0.720595D-01 -0.288520D+00 -0.133793D+00
     20  0.103974D-01 -0.189211D+00 -0.720595D-01 -0.288520D+00 -0.288520D+00
     21 -0.146434D-01  0.738630D-01  0.110226D+00 -0.152564D+00 -0.152564D+00
     22  0.214494D-01  0.101181D+00  0.123381D+00 -0.506911D-01 -0.506911D-01
     23 -0.103974D-01  0.189211D+00  0.720595D-01 -0.133793D+00 -0.288520D+00
     24 -0.103974D-01  0.189211D+00  0.720595D-01 -0.288520D+00 -0.133793D+00
     25  0.103974D-01 -0.189211D+00 -0.720595D-01  0.288520D+00  0.288520D+00
     26 -0.146434D-01  0.738630D-01  0.110226D+00 -0.152564D+00  0.152564D+00
     27  0.214494D-01  0.101181D+00  0.123381D+00 -0.506911D-01  0.506911D-01
     28 -0.103974D-01  0.189211D+00  0.720595D-01 -0.133793D+00  0.288520D+00
     29  0.103974D-01 -0.189211D+00 -0.720595D-01  0.288520D+00 -0.133793D+00
     30 -0.103974D-01  0.189211D+00  0.720595D-01 -0.288520D+00  0.288520D+00
     31 -0.146434D-01  0.738630D-01  0.110226D+00  0.152564D+00 -0.152564D+00
     32  0.214494D-01  0.101181D+00  0.123381D+00  0.506911D-01 -0.506911D-01
     33  0.103974D-01 -0.189211D+00 -0.720595D-01 -0.133793D+00  0.288520D+00
     34 -0.103974D-01  0.189211D+00  0.720595D-01  0.288520D+00 -0.133793D+00
     35 -0.103974D-01  0.189211D+00  0.720595D-01  0.288520D+00 -0.288520D+00
                6             7             8             9            10 
      6  0.215838D+01
      7  0.000000D+00  0.379250D+00
      8  0.000000D+00  0.000000D+00  0.379250D+00
      9  0.321818D+00  0.000000D+00  0.000000D+00  0.379250D+00
     10  0.000000D+00  0.000000D+00  0.000000D+00  0.000000D+00  0.119167D+01
     11  0.000000D+00  0.000000D+00  0.000000D+00  0.000000D+00 -0.916667D-01
     12  0.000000D+00  0.000000D+00  0.000000D+00  0.000000D+00 -0.916667D-01
     13  0.000000D+00  0.000000D+00  0.000000D+00  0.000000D+00  0.000000D+00
     14  0.000000D+00  0.000000D+00  0.000000D+00  0.000000D+00  0.000000D+00
     15  0.000000D+00  0.000000D+00  0.000000D+00  0.000000D+00  0.000000D+00
     16  0.152564D+00  0.152525D+00  0.152525D+00  0.152525D+00  0.115363D+00
     17  0.506911D-01  0.918706D-01  0.918706D-01  0.918706D-01  0.881312D-01
     18 -0.288520D+00  0.681933D-01 -0.769164D-01 -0.769164D-01  0.158741D+00
     19 -0.288520D+00 -0.769164D-01  0.681933D-01 -0.769164D-01 -0.254365D+00
     20 -0.133793D+00 -0.769164D-01 -0.769164D-01  0.681933D-01 -0.254365D+00
     21  0.152564D+00 -0.152525D+00 -0.152525D+00  0.152525D+00  0.115363D+00
     22  0.506911D-01 -0.918706D-01 -0.918706D-01  0.918706D-01  0.881312D-01
     23  0.288520D+00  0.681933D-01 -0.769164D-01  0.769164D-01 -0.158741D+00
     24  0.288520D+00 -0.769164D-01  0.681933D-01  0.769164D-01  0.254365D+00
     25 -0.133793D+00  0.769164D-01  0.769164D-01  0.681933D-01 -0.254365D+00
     26 -0.152564D+00 -0.152525D+00  0.152525D+00 -0.152525D+00  0.115363D+00
     27 -0.506911D-01 -0.918706D-01  0.918706D-01 -0.918706D-01  0.881312D-01
     28 -0.288520D+00  0.681933D-01  0.769164D-01 -0.769164D-01 -0.158741D+00
     29  0.288520D+00  0.769164D-01  0.681933D-01  0.769164D-01 -0.254365D+00
     30 -0.133793D+00 -0.769164D-01  0.769164D-01  0.681933D-01  0.254365D+00
     31 -0.152564D+00  0.152525D+00 -0.152525D+00 -0.152525D+00  0.115363D+00
     32 -0.506911D-01  0.918706D-01 -0.918706D-01 -0.918706D-01  0.881312D-01
     33  0.288520D+00  0.681933D-01  0.769164D-01  0.769164D-01  0.158741D+00
     34 -0.288520D+00  0.769164D-01  0.681933D-01 -0.769164D-01  0.254365D+00
     35 -0.133793D+00  0.769164D-01 -0.769164D-01  0.681933D-01  0.254365D+00
               11            12            13            14            15 
     11  0.119167D+01
     12 -0.916667D-01  0.119167D+01
     13  0.000000D+00  0.000000D+00  0.192500D+01
     14  0.000000D+00  0.000000D+00  0.000000D+00  0.192500D+01
     15  0.000000D+00  0.000000D+00  0.000000D+00  0.000000D+00  0.192500D+01
     16  0.115363D+00  0.115363D+00  0.297355D+00  0.297355D+00  0.297355D+00
     17  0.881312D-01  0.881312D-01  0.278048D-01  0.278048D-01  0.278048D-01
     18 -0.254365D+00 -0.254365D+00 -0.999217D-01 -0.999217D-01 -0.457682D+00
     19  0.158741D+00 -0.254365D+00 -0.999217D-01 -0.457682D+00 -0.999217D-01
     20 -0.254365D+00  0.158741D+00 -0.457682D+00 -0.999217D-01 -0.999217D-01
     21  0.115363D+00  0.115363D+00  0.297355D+00 -0.297355D+00 -0.297355D+00
     22  0.881312D-01  0.881312D-01  0.278048D-01 -0.278048D-01 -0.278048D-01
     23  0.254365D+00  0.254365D+00  0.999217D-01 -0.999217D-01 -0.457682D+00
     24 -0.158741D+00  0.254365D+00  0.999217D-01 -0.457682D+00 -0.999217D-01
     25 -0.254365D+00  0.158741D+00 -0.457682D+00  0.999217D-01  0.999217D-01
     26  0.115363D+00  0.115363D+00 -0.297355D+00  0.297355D+00 -0.297355D+00
     27  0.881312D-01  0.881312D-01 -0.278048D-01  0.278048D-01 -0.278048D-01
     28  0.254365D+00  0.254365D+00 -0.999217D-01  0.999217D-01 -0.457682D+00
     29  0.158741D+00 -0.254365D+00  0.999217D-01 -0.457682D+00  0.999217D-01
     30  0.254365D+00 -0.158741D+00 -0.457682D+00  0.999217D-01 -0.999217D-01
     31  0.115363D+00  0.115363D+00 -0.297355D+00 -0.297355D+00  0.297355D+00
     32  0.881312D-01  0.881312D-01 -0.278048D-01 -0.278048D-01  0.278048D-01
     33 -0.254365D+00 -0.254365D+00  0.999217D-01  0.999217D-01 -0.457682D+00
     34 -0.158741D+00  0.254365D+00 -0.999217D-01 -0.457682D+00  0.999217D-01
     35  0.254365D+00 -0.158741D+00 -0.457682D+00 -0.999217D-01  0.999217D-01
               16            17            18            19            20 
     16  0.969457D+00
     17  0.201234D+00  0.183000D+00
     18  0.000000D+00  0.000000D+00  0.181750D+01
     19  0.000000D+00  0.000000D+00  0.000000D+00  0.181750D+01
     20  0.000000D+00  0.000000D+00  0.000000D+00  0.000000D+00  0.181750D+01
     21 -0.327960D-01  0.179937D-01  0.233465D-01  0.233465D-01  0.000000D+00
     22  0.179937D-01  0.502572D-01 -0.293477D-01 -0.293477D-01  0.000000D+00
     23 -0.233465D-01  0.293477D-01  0.947823D-02  0.289369D-01  0.000000D+00
     24 -0.233465D-01  0.293477D-01  0.289369D-01  0.947823D-02  0.000000D+00
     25  0.000000D+00  0.000000D+00  0.000000D+00  0.000000D+00 -0.194586D-01
     26 -0.327960D-01  0.179937D-01  0.233465D-01  0.000000D+00  0.233465D-01
     27  0.179937D-01  0.502572D-01 -0.293477D-01  0.000000D+00 -0.293477D-01
     28 -0.233465D-01  0.293477D-01  0.947823D-02  0.000000D+00  0.289369D-01
     29  0.000000D+00  0.000000D+00  0.000000D+00 -0.194586D-01  0.000000D+00
     30 -0.233465D-01  0.293477D-01  0.289369D-01  0.000000D+00  0.947823D-02
     31 -0.327960D-01  0.179937D-01  0.000000D+00  0.233465D-01  0.233465D-01
     32  0.179937D-01  0.502572D-01  0.000000D+00 -0.293477D-01 -0.293477D-01
     33  0.000000D+00  0.000000D+00 -0.194586D-01  0.000000D+00  0.000000D+00
     34 -0.233465D-01  0.293477D-01  0.000000D+00  0.947823D-02  0.289369D-01
     35 -0.233465D-01  0.293477D-01  0.000000D+00  0.289369D-01  0.947823D-02
               21            22            23            24            25 
     21  0.969457D+00
     22  0.201234D+00  0.183000D+00
     23  0.000000D+00  0.000000D+00  0.181750D+01
     24  0.000000D+00  0.000000D+00  0.000000D+00  0.181750D+01
     25  0.000000D+00  0.000000D+00  0.000000D+00  0.000000D+00  0.181750D+01
     26 -0.327960D-01  0.179937D-01  0.000000D+00 -0.233465D-01  0.233465D-01
     27  0.179937D-01  0.502572D-01  0.000000D+00  0.293477D-01 -0.293477D-01
     28  0.000000D+00  0.000000D+00 -0.194586D-01  0.000000D+00  0.000000D+00
     29  0.233465D-01 -0.293477D-01  0.000000D+00  0.947823D-02 -0.289369D-01
     30 -0.233465D-01  0.293477D-01  0.000000D+00 -0.289369D-01  0.947823D-02
     31 -0.327960D-01  0.179937D-01 -0.233465D-01  0.000000D+00  0.233465D-01
     32  0.179937D-01  0.502572D-01  0.293477D-01  0.000000D+00 -0.293477D-01
     33  0.233465D-01 -0.293477D-01  0.947823D-02  0.000000D+00 -0.289369D-01
     34  0.000000D+00  0.000000D+00  0.000000D+00 -0.194586D-01  0.000000D+00
     35 -0.233465D-01  0.293477D-01 -0.289369D-01  0.000000D+00  0.947823D-02
               26            27            28            29            30 
     26  0.969457D+00
     27  0.201234D+00  0.183000D+00
     28  0.000000D+00  0.000000D+00  0.181750D+01
     29  0.000000D+00  0.000000D+00  0.000000D+00  0.181750D+01
     30  0.000000D+00  0.000000D+00  0.000000D+00  0.000000D+00  0.181750D+01
     31 -0.327960D-01  0.179937D-01 -0.233465D-01  0.233465D-01  0.000000D+00
     32  0.179937D-01  0.502572D-01  0.293477D-01 -0.293477D-01  0.000000D+00
     33  0.233465D-01 -0.293477D-01  0.947823D-02 -0.289369D-01  0.000000D+00
     34 -0.233465D-01  0.293477D-01 -0.289369D-01  0.947823D-02  0.000000D+00
     35  0.000000D+00  0.000000D+00  0.000000D+00  0.000000D+00 -0.194586D-01
               31            32            33            34            35 
     31  0.969457D+00
     32  0.201234D+00  0.183000D+00
     33  0.000000D+00  0.000000D+00  0.181750D+01
     34  0.000000D+00  0.000000D+00  0.000000D+00  0.181750D+01
     35  0.000000D+00  0.000000D+00  0.000000D+00  0.000000D+00  0.181750D+01
 Entering OneElI...
 OneElI was handed    33552457 working-precision words.
 Calculate potential energy integrals
    NBasis =  35  MinDer = 0  MaxDer = 0
 Requested accuracy = 0.1000D-12
 ShPair: Thresh= 1.00D-13 NBox=     0 BxSize= 0.00D+00 RnKept= 3.35D+00
         NSMCal=                  171 NSMKep=                 171
 Symmetry will be used
 Nuclear Attraction Integrals           
 The Coulomb operator will be used
 PrsmSu:  NPrtUS=   1 ThrOK=F IAlg=1 NPAlg=1 LenDen=           0.
 Prism:   IPart=     0 DynPar=F LinDyn=F Incr=           8.
 PRISM was handed    33528219 working-precision words and   171 shell-pairs
 PRISM will use Minimum- Mop paths
 [0] accuracy = 0.10D-12   Chebyshev Delta = 0.12D-02   Critical T = 28.20   # of points =  11979


           Zone         Bra Derivative Range     Ket Derivative Range
           ==========================================================
             1                 0 to 0                   0 to 0
           ==========================================================

                             -------------------
                             The (dd|ss) Classes
 Not enough memory for any path:
 MxKBra=    1 MxKKet=    1 Memory=    33421133.
                             -------------------

       Available PRISM Paths:  1  4  5 29

    No. of target [m0|n0]   =    31
    No. of locations needed =    32

       T1    T2    T3    T4    T5    T6    T7    T8    T9   T10   T11   T12
      189   929 99999 99999  1008  1083  1008  1083     0     0     0     0
   C1   C2   C3   C4   C5   C6   C7   C8   C9  C10  C11  C12  C13  C14  C15  C16
   46    0    0    0   76   35   76   76   36   36   36   36   36   36   36   36
  -46    0    0    0  -76  -35  -76  -76  -36  -36  -36  -36  -36  -36  -36  -36

                   VR1     cost =     349
                   Bra-TRn cost =     162
                   Ket-TRn cost =       0

                   Space needed for drivers          =   15211
                   Space needed for driver formation =   19803

                   KBra   KKet   Path     Mops    Wds/S4    MaxCom 

                   C37 =     140
                   C38 =     304
 Prsmar:  LTot= 4 LBK=  4  0 KBK=     1     1 Path=29 Kost=         635 NPerS4=         211 nW0=          40 nW1=          36 nW2=          40
          nW0X=          36 NPS4B=          63 jNext=      111088 NLeft=    33417092 jEnd=      274825 LenV=    33528219 MaxCom=         776

                             -------------------
                             The (dp|ss) Classes
 Not enough memory for any path:
 MxKBra=    3 MxKKet=    1 Memory=    33428076.
                             -------------------

       Available PRISM Paths:  1  4  5 29
[...]
  18        3PX        -0.00034   0.00267   0.00110   0.00001   0.00214
  19        3PY        -0.00034   0.00267   0.00110   0.00214   0.00001
  20        3PZ        -0.00034   0.00267   0.00110   0.00214   0.00214
  21 3   H  1S         -0.00372   0.04619   0.04251   0.04367   0.04367
  22        2S         -0.00085   0.00918   0.00973   0.00955   0.00955
  23        3PX        -0.00034   0.00267   0.00110   0.00001   0.00214
  24        3PY        -0.00034   0.00267   0.00110   0.00214   0.00001
  25        3PZ        -0.00034   0.00267   0.00110   0.00214   0.00214
  26 4   H  1S         -0.00372   0.04619   0.04251   0.04367   0.04367
  27        2S         -0.00085   0.00918   0.00973   0.00955   0.00955
  28        3PX        -0.00034   0.00267   0.00110   0.00001   0.00214
  29        3PY        -0.00034   0.00267   0.00110   0.00214   0.00001
  30        3PZ        -0.00034   0.00267   0.00110   0.00214   0.00214
  31 5   H  1S         -0.00372   0.04619   0.04251   0.04367   0.04367
  32        2S         -0.00085   0.00918   0.00973   0.00955   0.00955
  33        3PX        -0.00034   0.00267   0.00110   0.00001   0.00214
  34        3PY        -0.00034   0.00267   0.00110   0.00214   0.00001
  35        3PZ        -0.00034   0.00267   0.00110   0.00214   0.00214
                           6         7         8         9        10
   6        4PZ         0.35942
   7        5PX         0.00000   0.07743
   8        5PY         0.00000   0.00000   0.07743
   9        5PZ         0.08854   0.00000   0.00000   0.07743
  10        6XX         0.00000   0.00000   0.00000   0.00000   0.00005
  11        6YY         0.00000   0.00000   0.00000   0.00000   0.00002
  12        6ZZ         0.00000   0.00000   0.00000   0.00000   0.00002
  13        6XY         0.00000   0.00000   0.00000   0.00000   0.00000
  14        6XZ         0.00000   0.00000   0.00000   0.00000   0.00000
  15        6YZ         0.00000   0.00000   0.00000   0.00000   0.00000
  16 2   H  1S          0.04367   0.02880   0.02880   0.02880  -0.00051
  17        2S          0.00955   0.01126   0.01126   0.01126  -0.00010
  18        3PX         0.00214   0.00010   0.00048   0.00048   0.00001
  19        3PY         0.00214   0.00048   0.00010   0.00048  -0.00003
  20        3PZ         0.00001   0.00048   0.00048   0.00010  -0.00003
  21 3   H  1S          0.04367   0.02880   0.02880   0.02880  -0.00051
  22        2S          0.00955   0.01126   0.01126   0.01126  -0.00010
  23        3PX         0.00214   0.00010   0.00048   0.00048   0.00001
  24        3PY         0.00214   0.00048   0.00010   0.00048  -0.00003
  25        3PZ         0.00001   0.00048   0.00048   0.00010  -0.00003
  26 4   H  1S          0.04367   0.02880   0.02880   0.02880  -0.00051
  27        2S          0.00955   0.01126   0.01126   0.01126  -0.00010
  28        3PX         0.00214   0.00010   0.00048   0.00048   0.00001
  29        3PY         0.00214   0.00048   0.00010   0.00048  -0.00003
  30        3PZ         0.00001   0.00048   0.00048   0.00010  -0.00003
  31 5   H  1S          0.04367   0.02880   0.02880   0.02880  -0.00051
  32        2S          0.00955   0.01126   0.01126   0.01126  -0.00010
  33        3PX         0.00214   0.00010   0.00048   0.00048   0.00001
  34        3PY         0.00214   0.00048   0.00010   0.00048  -0.00003
  35        3PZ         0.00001   0.00048   0.00048   0.00010  -0.00003
                          11        12        13        14        15
  11        6YY         0.00005
  12        6ZZ         0.00002   0.00005
  13        6XY         0.00000   0.00000   0.00147
  14        6XZ         0.00000   0.00000   0.00000   0.00147
  15        6YZ         0.00000   0.00000   0.00000   0.00000   0.00147
  16 2   H  1S         -0.00051  -0.00051   0.00285   0.00285   0.00285
  17        2S         -0.00010  -0.00010   0.00023   0.00023   0.00023
  18        3PX        -0.00003  -0.00003  -0.00002  -0.00002  -0.00002
  19        3PY         0.00001  -0.00003  -0.00002  -0.00002  -0.00002
  20        3PZ        -0.00003   0.00001  -0.00002  -0.00002  -0.00002
  21 3   H  1S         -0.00051  -0.00051   0.00285   0.00285   0.00285
  22        2S         -0.00010  -0.00010   0.00023   0.00023   0.00023
  23        3PX        -0.00003  -0.00003  -0.00002  -0.00002  -0.00002
  24        3PY         0.00001  -0.00003  -0.00002  -0.00002  -0.00002
  25        3PZ        -0.00003   0.00001  -0.00002  -0.00002  -0.00002
  26 4   H  1S         -0.00051  -0.00051   0.00285   0.00285   0.00285
  27        2S         -0.00010  -0.00010   0.00023   0.00023   0.00023
  28        3PX        -0.00003  -0.00003  -0.00002  -0.00002  -0.00002
  29        3PY         0.00001  -0.00003  -0.00002  -0.00002  -0.00002
  30        3PZ        -0.00003   0.00001  -0.00002  -0.00002  -0.00002
  31 5   H  1S         -0.00051  -0.00051   0.00285   0.00285   0.00285
  32        2S         -0.00010  -0.00010   0.00023   0.00023   0.00023
  33        3PX        -0.00003  -0.00003  -0.00002  -0.00002  -0.00002
  34        3PY         0.00001  -0.00003  -0.00002  -0.00002  -0.00002
  35        3PZ        -0.00003   0.00001  -0.00002  -0.00002  -0.00002
                          16        17        18        19        20
  16 2   H  1S          0.37307
  17        2S          0.09307   0.05370
  18        3PX         0.00000   0.00000   0.00107
  19        3PY         0.00000   0.00000   0.00000   0.00107
  20        3PZ         0.00000   0.00000   0.00000   0.00000   0.00107
  21 3   H  1S         -0.00186  -0.00732   0.00036   0.00036   0.00000
  22        2S         -0.00732  -0.00807   0.00011   0.00011   0.00000
  23        3PX         0.00036   0.00011   0.00003   0.00006   0.00000
  24        3PY         0.00036   0.00011   0.00006   0.00003   0.00000
  25        3PZ         0.00000   0.00000   0.00000   0.00000   0.00000
  26 4   H  1S         -0.00186  -0.00732   0.00036   0.00000   0.00036
  27        2S         -0.00732  -0.00807   0.00011   0.00000   0.00011
  28        3PX         0.00036   0.00011   0.00003   0.00000   0.00006
  29        3PY         0.00000   0.00000   0.00000   0.00000   0.00000
  30        3PZ         0.00036   0.00011   0.00006   0.00000   0.00003
  31 5   H  1S         -0.00186  -0.00732   0.00000   0.00036   0.00036
  32        2S         -0.00732  -0.00807   0.00000   0.00011   0.00011
  33        3PX         0.00000   0.00000   0.00000   0.00000   0.00000
  34        3PY         0.00036   0.00011   0.00000   0.00003   0.00006
  35        3PZ         0.00036   0.00011   0.00000   0.00006   0.00003
                          21        22        23        24        25
  21 3   H  1S          0.37307
  22        2S          0.09307   0.05370
  23        3PX         0.00000   0.00000   0.00107
  24        3PY         0.00000   0.00000   0.00000   0.00107
  25        3PZ         0.00000   0.00000   0.00000   0.00000   0.00107
  26 4   H  1S         -0.00186  -0.00732   0.00000   0.00036   0.00036
  27        2S         -0.00732  -0.00807   0.00000   0.00011   0.00011
  28        3PX         0.00000   0.00000   0.00000   0.00000   0.00000
  29        3PY         0.00036   0.00011   0.00000   0.00003   0.00006
  30        3PZ         0.00036   0.00011   0.00000   0.00006   0.00003
  31 5   H  1S         -0.00186  -0.00732   0.00036   0.00000   0.00036
  32        2S         -0.00732  -0.00807   0.00011   0.00000   0.00011
  33        3PX         0.00036   0.00011   0.00003   0.00000   0.00006
  34        3PY         0.00000   0.00000   0.00000   0.00000   0.00000
  35        3PZ         0.00036   0.00011   0.00006   0.00000   0.00003
                          26        27        28        29        30
  26 4   H  1S          0.37307
  27        2S          0.09307   0.05370
  28        3PX         0.00000   0.00000   0.00107
  29        3PY         0.00000   0.00000   0.00000   0.00107
  30        3PZ         0.00000   0.00000   0.00000   0.00000   0.00107
  31 5   H  1S         -0.00186  -0.00732   0.00036   0.00036   0.00000
  32        2S         -0.00732  -0.00807   0.00011   0.00011   0.00000
  33        3PX         0.00036   0.00011   0.00003   0.00006   0.00000
  34        3PY         0.00036   0.00011   0.00006   0.00003   0.00000
  35        3PZ         0.00000   0.00000   0.00000   0.00000   0.00000
                          31        32        33        34        35
  31 5   H  1S          0.37307
  32        2S          0.09307   0.05370
  33        3PX         0.00000   0.00000   0.00107
  34        3PY         0.00000   0.00000   0.00000   0.00107
  35        3PZ         0.00000   0.00000   0.00000   0.00000   0.00107
     Gross orbital populations:
                           1
   1 1   C  1S          1.99715
   2        2S          0.63112
   3        3S          0.46455
   4        4PX         0.67802
   5        4PY         0.67802
   6        4PZ         0.67802
   7        5PX         0.33046
   8        5PY         0.33046
   9        5PZ         0.33046
  10        6XX        -0.00617
  11        6YY        -0.00617
  12        6ZZ        -0.00617
  13        6XY         0.01358
  14        6XZ         0.01358
  15        6YZ         0.01358
  16 2   H  1S          0.75015
  17        2S          0.18215
  18        3PX         0.01086
  19        3PY         0.01086
  20        3PZ         0.01086
  21 3   H  1S          0.75015
  22        2S          0.18215
  23        3PX         0.01086
  24        3PY         0.01086
  25        3PZ         0.01086
  26 4   H  1S          0.75015
  27        2S          0.18215
  28        3PX         0.01086
  29        3PY         0.01086
  30        3PZ         0.01086
  31 5   H  1S          0.75015
  32        2S          0.18215
  33        3PX         0.01086
  34        3PY         0.01086
  35        3PZ         0.01086
          Condensed to atoms (all electrons):
               1          2          3          4          5
     1  C    4.475307   0.416294   0.416294   0.416294   0.416294
     2  H    0.416294   0.616099  -0.022504  -0.022504  -0.022504
     3  H    0.416294  -0.022504   0.616099  -0.022504  -0.022504
     4  H    0.416294  -0.022504  -0.022504   0.616099  -0.022504
     5  H    0.416294  -0.022504  -0.022504  -0.022504   0.616099
 Mulliken charges:
               1
     1  C   -0.140482
     2  H    0.035120
     3  H    0.035120
     4  H    0.035120
     5  H    0.035120
 Sum of Mulliken charges =   0.00000
 Mulliken charges with hydrogens summed into heavy atoms:
               1
     1  C    0.000000
 Electronic spatial extent (au):  <R**2>=             35.4174
 Charge=              0.0000 electrons
 Dipole moment (field-independent basis, Debye):
    X=              0.0000    Y=              0.0000    Z=              0.0000  Tot=              0.0000
 Quadrupole moment (field-independent basis, Debye-Ang):
   XX=             -8.3406   YY=             -8.3406   ZZ=             -8.3406
   XY=              0.0000   XZ=              0.0000   YZ=              0.0000
 Traceless Quadrupole moment (field-independent basis, Debye-Ang):
   XX=              0.0000   YY=              0.0000   ZZ=              0.0000
   XY=              0.0000   XZ=              0.0000   YZ=              0.0000
 Octapole moment (field-independent basis, Debye-Ang**2):
  XXX=              0.0000  YYY=              0.0000  ZZZ=              0.0000  XYY=              0.0000
  XXY=              0.0000  XXZ=              0.0000  XZZ=              0.0000  YZZ=              0.0000
  YYZ=              0.0000  XYZ=              0.6191
 Hexadecapole moment (field-independent basis, Debye-Ang**3):
 XXXX=            -16.0043 YYYY=            -16.0043 ZZZZ=            -16.0043 XXXY=              0.0000
 XXXZ=              0.0000 YYYX=              0.0000 YYYZ=              0.0000 ZZZX=              0.0000
 ZZZY=              0.0000 XXYY=             -4.8454 XXZZ=             -4.8454 YYZZ=             -4.8454
 XXYZ=              0.0000 YYXZ=              0.0000 ZZXY=              0.0000
 N-N= 1.349784301922D+01 E-N=-1.199264408017D+02  KE= 4.011235804644D+01
 Symmetry A    KE= 3.448026641676D+01
 Symmetry B1   KE= 1.877363876560D+00
 Symmetry B2   KE= 1.877363876560D+00
 Symmetry B3   KE= 1.877363876560D+00
 Orbital energies and kinetic energies (alpha):
                                 1                 2
   1         (A1)--O         -11.213869         16.009483
   2         (A1)--O          -0.944156          1.230650
   3         (T2)--O          -0.543822          0.938682
   4         (T2)--O          -0.543822          0.938682
   5         (T2)--O          -0.543822          0.938682
   6         (A1)--V           0.191914          0.647790
   7         (T2)--V           0.274813          0.573089
   8         (T2)--V           0.274813          0.573089
   9         (T2)--V           0.274813          0.573089
  10         (T2)--V           0.589140          1.109052
  11         (T2)--V           0.589140          1.109052
  12         (T2)--V           0.589140          1.109052
  13         (T2)--V           0.891672          2.098446
  14         (T2)--V           0.891672          2.098446
  15         (T2)--V           0.891672          2.098446
  16         (A1)--V           0.938254          2.155052
  17         (E)--V            1.132225          1.629152
  18         (E)--V            1.132225          1.629152
  19         (A1)--V           1.207446          1.640358
  20         (T1)--V           1.689973          2.042034
  21         (T1)--V           1.689973          2.042034
  22         (T1)--V           1.689973          2.042034
  23         (T2)--V           1.898597          2.440326
  24         (T2)--V           1.898597          2.440326
  25         (T2)--V           1.898597          2.440326
  26         (T2)--V           2.215962          2.675105
  27         (T2)--V           2.215962          2.675105
  28         (T2)--V           2.215962          2.675105
  29         (E)--V            2.551658          2.999078
  30         (E)--V            2.551658          2.999078
  31         (A1)--V           2.738901          4.615565
  32         (T2)--V           2.805551          4.459370
  33         (T2)--V           2.805551          4.459370
  34         (T2)--V           2.805551          4.459370
  35         (A1)--V           3.427109          6.743879
 Total kinetic energy from orbitals= 4.011235804644D+01
 No NMR shielding tensors so no spin-rotation constants.
 Leave Link  601 at Fri May 29 14:34:32 2015, MaxMem=    33554432 cpu:               0.1 elap:               0.1
 (Enter /home/gauss/gdvi02/gdv/l9999.exe)
 Unable to Open any file for archive entry.
 1\1\GINC-MEDUSA\SP\RHF\CC-pVDZ\C1H4\DBWY\29-May-2015\0\\#p hf/cc-pVDZ 
 GFInput pop=full iop33(3=5) output=RawMatrixElement units=bohr 6D\\CH4
  cc-pVDZ SCF\\0,1\C,0,0.,0.,0.\H,0,0.6264000029,-0.6264000029,-0.62640
 00029\H,0,0.6264000029,0.6264000029,0.6264000029\H,0,-0.6264000029,0.6
 264000029,-0.6264000029\H,0,-0.6264000029,-0.6264000029,0.6264000029\\
 Version=ES64L-GDVRevI.02\State=1-A1\HF=-40.1986894\RMSD=4.640e-09\Dipo
 le=0.,0.,0.\Quadrupole=0.,0.,0.,0.,0.,0.\PG=TD [O(C1),4C3(H1)]\\@
 The archive entry for this job was punched.


 WHEN YOU REACH FOR THE STARS, YOU MAY NOT QUITE GET ONE,
 BUT YOU WON'T COME UP WITH A HANDFUL OF MUD, EITHER.

                                         -- LEO BURNETT (AD AGENCY HEAD)

 Writing WrtUnf raw file "ch4_vdz.matel"
 Gaussian matrix elements                                         Version   2 NLab=11 Len12L=4 Len4L=4
 WrtUnf:  Coordinates translated and rotated.
 WrtUnf:  Coordinates match /B/ after translation and rotation.
 Write SHELL TO ATOM MAP                   from file     0 offset           0 length                  18 to matrix element file.
 Write SHELL TYPES                         from file     0 offset           0 length                  18 to matrix element file.
 Write NUMBER OF PRIMITIVES PER SHELL      from file     0 offset           0 length                  18 to matrix element file.
 Write PRIMITIVE EXPONENTS                 from file     0 offset           0 length                  40 to matrix element file.
 Write CONTRACTION COEFFICIENTS            from file     0 offset           0 length                  40 to matrix element file.
 Write P(S=P) CONTRACTION COEFFICIENTS     from file     0 offset           0 length                  40 to matrix element file.
 Write COORDINATES OF EACH SHELL           from file     0 offset           0 length                  54 to matrix element file.
 Write BONDS PER ATOM                      from file     0 offset           0 length                   5 to matrix element file.
 Write BONDED ATOMS                        from file     0 offset           0 length                   8 to matrix element file.
 Write BOND TYPES                          from file     0 offset           0 length                   8 to matrix element file.
 Write GAUSSIAN SCALARS                    from file   501 offset           0 to matrix element file.
 Write INTEGER ISO                         from file     0 offset           0 length                   5 to matrix element file.
 Write INTEGER SPIN                        from file     0 offset           0 length                   5 to matrix element file.
 Write REAL ZEFFECTIVE                     from file     0 offset           0 length                   5 to matrix element file.
 Write REAL GFACTOR                        from file     0 offset           0 length                   5 to matrix element file.
 Write REAL ZNUCLEAR                       from file     0 offset           0 length                   5 to matrix element file.
 Write NUCLEAR GRADIENT                    from file 10584 offset           0 length                  15 to matrix element file.
 Array NUCLEAR FORCE CONSTANTS              on  file 10585 does not exist.
 Write ELECTRIC DIPOLE MOMENT              from file     0 offset           0 length                   3 to matrix element file.
 Write OVERLAP                             from file   514 offset           0 length                 630 to matrix element file.
 Write CORE HAMILTONIAN ALPHA              from file   515 offset           0 length                 630 to matrix element file.
 Write CORE HAMILTONIAN BETA               from file   515 offset         630 length                 630 to matrix element file.
 Write KINETIC ENERGY                      from file   516 offset           0 length                 630 to matrix element file.
 Write ORTHOGONAL BASIS                    from file   685 offset           0 length                1225 to matrix element file.
 Write DIPOLE INTEGRALS                    from file   518 offset           0 length                1890 to matrix element file.
 Array DIP VEL INTEGRALS                    on  file   572 does not exist.
 Array R X DEL INTEGRALS                    on  file   572 does not exist.
 Write ALPHA ORBITAL ENERGIES              from file     0 offset           0 length                  35 to matrix element file.
 Write ALPHA MO COEFFICIENTS               from file 10524 offset           0 length                1225 to matrix element file.
 Write ALPHA DENSITY MATRIX                from file 10528 offset           0 length                 630 to matrix element file.
 Write ALPHA SCF DENSITY MATRIX            from file 10528 offset           0 length                 630 to matrix element file.
 Write ALPHA FOCK MATRIX                   from file 10536 offset           0 length                 630 to matrix element file.
 No 2e integrals to process.
 Job cpu time:       0 days  0 hours  0 minutes  1.1 seconds.
 Elapsed time:       0 days  0 hours  0 minutes  0.9 seconds.
 File lengths (MBytes):  RWF=      5 Int=      0 D2E=      0 Chk=      1 Scr=      1
 Normal termination of Gaussian DV at Fri May 29 14:34:32 2015.
