 Entering Gaussian System, Link 0=gdv
 Input=ch4_sto3g.com
 Output=ch4_sto3g.log
 Initial command:
 /home/gauss/gdvi02/gdv/l1.exe "/home/GauScr/Gau-14645.inp" -scrdir="/home/GauScr/"
 Entering Link 1 = /home/gauss/gdvi02/gdv/l1.exe PID=     14646.
  
 Copyright (c) 1988,1990,1992,1993,1995,1998,2003,2009,2014,
            Gaussian, Inc.  All Rights Reserved.
  
 This is the private, development version of
 the Gaussian(R) DV system of programs. It is based on
 the Gaussian(R) 09 system (copyright 2009, Gaussian, Inc.),
 the Gaussian(R) 03 system (copyright 2003, Gaussian, Inc.),
 the Gaussian(R) 98 system (copyright 1998, Gaussian, Inc.),
 the Gaussian(R) 94 system (copyright 1995, Gaussian, Inc.),
 the Gaussian 92(TM) system (copyright 1992, Gaussian, Inc.),
 the Gaussian 90(TM) system (copyright 1990, Gaussian, Inc.),
 the Gaussian 88(TM) system (copyright 1988, Gaussian, Inc.),
 the Gaussian 86(TM) system (copyright 1986, Carnegie Mellon
 University), and the Gaussian 82(TM) system (copyright 1983,
 Carnegie Mellon University). Gaussian is a federally registered
 trademark of Gaussian, Inc.
  
 This software contains proprietary and confidential information,
 including trade secrets, belonging to Gaussian, Inc.
  
 This software is provided under written license and may be
 used, copied, transmitted, or stored only in accord with that
 written license.
  
 The following legend is applicable only to US Government
 contracts under FAR:
  
                    RESTRICTED RIGHTS LEGEND
  
 Use, reproduction and disclosure by the US Government is
 subject to restrictions as set forth in subparagraphs (a)
 and (c) of the Commercial Computer Software - Restricted
 Rights clause in FAR 52.227-19.
  
 Gaussian, Inc.
 340 Quinnipiac St., Bldg. 40, Wallingford CT 06492
  
  
 ---------------------------------------------------------------
 Warning -- This program may not be used in any manner that
 competes with the business of Gaussian, Inc. or will provide
 assistance to any competitor of Gaussian, Inc.  The licensee
 of this program is prohibited from giving any competitor of
 Gaussian, Inc. access to this program.  By using this program,
 the user acknowledges that Gaussian, Inc. is engaged in the
 business of creating and licensing software in the field of
 computational chemistry and represents and warrants to the
 licensee that it is not a competitor of Gaussian, Inc. and that
 it will not use this program in any manner prohibited above.
 ---------------------------------------------------------------
  

 Cite this work as:
 Gaussian Development Version, Revision I.02,
 M. J. Frisch, G. W. Trucks, H. B. Schlegel, G. E. Scuseria, 
 M. A. Robb, J. R. Cheeseman, G. Scalmani, V. Barone, B. Mennucci, 
 G. A. Petersson, H. Nakatsuji, M. Caricato, X. Li, H. P. Hratchian, 
 J. Bloino, B. G. Janesko, A. F. Izmaylov, F. Lipparini, G. Zheng, 
 J. L. Sonnenberg, W. Liang, M. Hada, M. Ehara, K. Toyota, R. Fukuda, 
 J. Hasegawa, M. Ishida, T. Nakajima, Y. Honda, O. Kitao, H. Nakai, 
 T. Vreven, K. Throssell, J. A. Montgomery, Jr., J. E. Peralta, 
 F. Ogliaro, M. Bearpark, J. J. Heyd, E. Brothers, K. N. Kudin, 
 V. N. Staroverov, T. Keith, R. Kobayashi, J. Normand, 
 K. Raghavachari, A. Rendell, J. C. Burant, S. S. Iyengar, J. Tomasi, 
 M. Cossi, N. Rega, J. M. Millam, M. Klene, J. E. Knox, J. B. Cross, 
 V. Bakken, C. Adamo, J. Jaramillo, R. Gomperts, R. E. Stratmann, 
 O. Yazyev, A. J. Austin, R. Cammi, C. Pomelli, J. W. Ochterski, 
 R. L. Martin, K. Morokuma, V. G. Zakrzewski, G. A. Voth, 
 P. Salvador, J. J. Dannenberg, S. Dapprich, P. V. Parandekar, 
 N. J. Mayhall, A. D. Daniels, O. Farkas, J. B. Foresman, 
 J. V. Ortiz, J. Cioslowski, and D. J. Fox, 
 Gaussian, Inc., Wallingford CT, 2014.
 
 ******************************************
 Gaussian DV:  ES64L-GDVRevI.02  7-Dec-2014
                29-May-2015 
 ******************************************
 ----------------------------------------------------------------------
 #p hf/sto-3g GFInput pop=full iop33(3=5) output=RawMatrixElement units
 =bohr
 ----------------------------------------------------------------------
 1/20=1,38=1,172=1/1;
 2/12=2,17=6,18=5,40=1/2;
 3/6=3,11=9,24=10,25=1,30=1,33=5,160=2000000/1,2,3;
 4//1;
 5/5=2,38=5/2;
 6/7=3,28=1,125=2000000/1;
 99/5=1,6=100000,9=1,125=2000000/99;
 Leave Link    1 at Fri May 29 13:54:21 2015, MaxMem=           0 cpu:               0.0 elap:               0.0
 (Enter /home/gauss/gdvi02/gdv/l101.exe)
 --------------
 CH4 STO-3G SCF
 --------------
 Symbolic Z-matrix:
 Charge =  0 Multiplicity = 1
 6                     0.        0.        0. 
 1                     1.18372  -1.18372  -1.18372 
 1                     1.18372   1.18372   1.18372 
 1                    -1.18372   1.18372  -1.18372 
 1                    -1.18372  -1.18372   1.18372 
 
 ITRead=  0  0  0  0  0
 MicOpt= -1 -1 -1 -1 -1
 NAtoms=      5 NQM=        5 NQMF=       0 NMMI=      0 NMMIF=      0
                NMic=       0 NMicF=      0.
                    Isotopes and Nuclear Properties:
 (Nuclear quadrupole moments (NQMom) in fm**2, nuclear magnetic moments (NMagM)
  in nuclear magnetons)

  Atom         1           2           3           4           5
 IAtWgt=          12           1           1           1           1
 AtmWgt=  12.0000000   1.0078250   1.0078250   1.0078250   1.0078250
 NucSpn=           0           1           1           1           1
 AtZEff=   0.0000000   0.0000000   0.0000000   0.0000000   0.0000000
 NQMom=    0.0000000   0.0000000   0.0000000   0.0000000   0.0000000
 NMagM=    0.0000000   2.7928460   2.7928460   2.7928460   2.7928460
 AtZNuc=   6.0000000   1.0000000   1.0000000   1.0000000   1.0000000
 Leave Link  101 at Fri May 29 13:54:21 2015, MaxMem=    33554432 cpu:               0.1 elap:               0.1
 (Enter /home/gauss/gdvi02/gdv/l202.exe)
                          Input orientation:                          
 ---------------------------------------------------------------------
 Center     Atomic      Atomic             Coordinates (Angstroms)
 Number     Number       Type             X           Y           Z
 ---------------------------------------------------------------------
      1          6           0        0.000000    0.000000    0.000000
      2          1           0        0.626400   -0.626400   -0.626400
      3          1           0        0.626400    0.626400    0.626400
      4          1           0       -0.626400    0.626400   -0.626400
      5          1           0       -0.626400   -0.626400    0.626400
 ---------------------------------------------------------------------
                    Distance matrix (angstroms):
                    1          2          3          4          5
     1  C    0.000000
     2  H    1.084957   0.000000
     3  H    1.084957   1.771727   0.000000
     4  H    1.084957   1.771727   1.771727   0.000000
     5  H    1.084957   1.771727   1.771727   1.771727   0.000000
 Stoichiometry    CH4
 Framework group  TD[O(C),4C3(H)]
 Deg. of freedom     1
 Full point group                 TD      NOp  24
 Largest Abelian subgroup         D2      NOp   4
 Largest concise Abelian subgroup D2      NOp   4
                         Standard orientation:                         
 ---------------------------------------------------------------------
 Center     Atomic      Atomic             Coordinates (Angstroms)
 Number     Number       Type             X           Y           Z
 ---------------------------------------------------------------------
      1          6           0        0.000000    0.000000    0.000000
      2          1           0        0.626400    0.626400    0.626400
      3          1           0       -0.626400   -0.626400    0.626400
      4          1           0       -0.626400    0.626400   -0.626400
      5          1           0        0.626400   -0.626400   -0.626400
 ---------------------------------------------------------------------
 Rotational constants (GHZ):    159.7491542    159.7491542    159.7491542
 Leave Link  202 at Fri May 29 13:54:21 2015, MaxMem=    33554432 cpu:               0.0 elap:               0.0
 (Enter /home/gauss/gdvi02/gdv/l301.exe)
 Standard basis: STO-3G (5D, 7F)
                         Coordinates in L301:                         
 ---------------------------------------------------------------------
 Center     Atomic      Atomic             Coordinates (Angstroms)
 Number     Number       Type             X           Y           Z
 ---------------------------------------------------------------------
      1          6           0        0.000000    0.000000    0.000000
      2          1           0        0.626400    0.626400    0.626400
      3          1           0       -0.626400   -0.626400    0.626400
      4          1           0       -0.626400    0.626400   -0.626400
      5          1           0        0.626400   -0.626400   -0.626400
 ---------------------------------------------------------------------
 FixB: optimizing general contractions.
 Ernie: Thresh=  0.10000D-02 Tol=  0.10000D-05 Strict=F.
 IA=     1 ShT= 0 ShC= 0 NL=   1 NS=   0.
         I=   1 JX=   3 NP=   3
 IA=     1 L=0 SC=0 ISt=    0 NBk=    0 NP=    0 IndPr=    0.
 IA=     1 ShT= 1 ShC= 0 NL=   1 NS=   0.
         I=   1 JX=   3 NP=   3
 IA=     1 L=1 SC=0 ISt=    0 NBk=    0 NP=    0 IndPr=    0.
 IA=     2 ShT= 0 ShC= 0 NL=   1 NS=   0.
         I=   1 JX=   3 NP=   3
 IA=     2 L=0 SC=0 ISt=    0 NBk=    0 NP=    0 IndPr=    0.
 IA=     3 ShT= 0 ShC= 0 NL=   1 NS=   0.
         I=   1 JX=   3 NP=   3
 IA=     3 L=0 SC=0 ISt=    0 NBk=    0 NP=    0 IndPr=    0.
 IA=     4 ShT= 0 ShC= 0 NL=   1 NS=   0.
         I=   1 JX=   3 NP=   3
 IA=     4 L=0 SC=0 ISt=    0 NBk=    0 NP=    0 IndPr=    0.
 IA=     5 ShT= 0 ShC= 0 NL=   1 NS=   0.
         I=   1 JX=   3 NP=   3
 IA=     5 L=0 SC=0 ISt=    0 NBk=    0 NP=    0 IndPr=    0.
 Electric field displacement of shell     1 is  0.00D+00
 Electric field displacement of shell     2 is  0.00D+00
 Electric field displacement of shell     3 is  0.00D+00
 Electric field displacement of shell     4 is  0.00D+00
 Electric field displacement of shell     5 is  0.00D+00
 Electric field displacement of shell     6 is  0.00D+00
 AO basis set in the form of general basis input (Overlap normalization):
      1 0
 S   3 1.00       0.000000000000
      0.7161683735D+02  0.1543289673D+00
      0.1304509632D+02  0.5353281423D+00
      0.3530512160D+01  0.4446345422D+00
 SP   3 1.00       0.000000000000
      0.2941249355D+01 -0.9996722919D-01  0.1559162750D+00
      0.6834830964D+00  0.3995128261D+00  0.6076837186D+00
      0.2222899159D+00  0.7001154689D+00  0.3919573931D+00
 ****
      2 0
 S   3 1.00       0.000000000000
      0.3425250914D+01  0.1543289673D+00
      0.6239137298D+00  0.5353281423D+00
      0.1688554040D+00  0.4446345422D+00
 ****
      3 0
 S   3 1.00       0.000000000000
      0.3425250914D+01  0.1543289673D+00
      0.6239137298D+00  0.5353281423D+00
      0.1688554040D+00  0.4446345422D+00
 ****
      4 0
 S   3 1.00       0.000000000000
      0.3425250914D+01  0.1543289673D+00
      0.6239137298D+00  0.5353281423D+00
      0.1688554040D+00  0.4446345422D+00
 ****
      5 0
 S   3 1.00       0.000000000000
      0.3425250914D+01  0.1543289673D+00
      0.6239137298D+00  0.5353281423D+00
      0.1688554040D+00  0.4446345422D+00
 ****

 LdAtmC:  AtmChg=     6.000000     1.000000     1.000000     1.000000     1.000000
 AtZEff=     -3.6000000     -1.0000000     -1.0000000     -1.0000000     -1.0000000
 NEqShl: 
              1            2            3            4            5
     1            1            1            1            1            1
     2            2            2            2            2            2
     3            3            6            5            4            3
     4            4            5            6            3            5
     5            5            4            3            6            6
     6            6            3            4            5            4
              6            7            8            9           10
     1            1            1            1            1            1
     2            2            2            2            2            2
     3            3            6            4            4            5
     4            6            3            6            5            3
     5            4            5            5            3            4
     6            5            4            3            6            6
             11           12           13           14           15
     1            1            1            1            1            1
     2            2            2            2            2            2
     3            6            5            5            4            4
     4            4            4            3            6            5
     5            3            6            6            3            6
     6            5            3            4            5            3
             16           17           18           19           20
     1            1            1            1            1            1
     2            2            2            2            2            2
     3            6            6            5            6            3
     4            3            5            6            4            5
     5            4            3            4            5            4
     6            5            4            3            3            6
             21           22           23           24
     1            1            1            1            1
     2            2            2            2            2
     3            3            5            4            3
     4            6            4            3            4
     5            5            3            5            6
     6            4            6            6            5
 NEqBas: 
              1            2            3            4
     1            1            1            1            1
     2            2            2            2            2
     3            3            3           -3           -3
     4            4           -4            4           -4
     5            5           -5           -5            5
     6            6            9            8            7
     7            7            8            9            6
     8            8            7            6            9
     9            9            6            7            8
 There are     3 symmetry adapted cartesian basis functions of A   symmetry.
   1         1   1   1   1
   2         2   2   2   2
   3         6   7   8   9
 There are     2 symmetry adapted cartesian basis functions of B1  symmetry.
   4         5   5   5   5
   5         6   7  -8  -9
 There are     2 symmetry adapted cartesian basis functions of B2  symmetry.
   6         4   4   4   4
   7         6  -7   8  -9
 There are     2 symmetry adapted cartesian basis functions of B3  symmetry.
   8         3   3   3   3
   9         6  -7  -8   9
 Order= 1 4 3 2
 Reordered character table:
              1            2            3            4            5
     1            1            1            1            1            1
     2            4            1           -1           -1            1
     3            3            1           -1            1           -1
     4            2            1            1           -1           -1
 NEqShl: 
              1            2            3            4            5
     1            1            1            1            1            1
     2            2            2            2            2            2
     3            3            6            5            4            3
     4            4            5            6            3            5
     5            5            4            3            6            6
     6            6            3            4            5            4
              6            7            8            9           10
     1            1            1            1            1            1
     2            2            2            2            2            2
     3            3            6            4            4            5
     4            6            3            6            5            3
     5            4            5            5            3            4
     6            5            4            3            6            6
             11           12           13           14           15
     1            1            1            1            1            1
     2            2            2            2            2            2
     3            6            5            5            4            4
     4            4            4            3            6            5
     5            3            6            6            3            6
     6            5            3            4            5            3
             16           17           18           19           20
     1            1            1            1            1            1
     2            2            2            2            2            2
     3            6            6            5            6            3
     4            3            5            6            4            5
     5            4            3            4            5            4
     6            5            4            3            3            6
             21           22           23           24
     1            1            1            1            1
     2            2            2            2            2
     3            3            5            4            3
     4            6            4            3            4
     5            5            3            5            6
     6            4            6            6            5
 NEqBas: 
              1            2            3            4
     1            1            1            1            1
     2            2            2            2            2
     3            3            3           -3           -3
     4            4           -4            4           -4
     5            5           -5           -5            5
     6            6            9            8            7
     7            7            8            9            6
     8            8            7            6            9
     9            9            6            7            8
 There are     3 symmetry adapted basis functions of A   symmetry.
   1         1   1   1   1
   2         2   2   2   2
   3         6   7   8   9
 There are     2 symmetry adapted basis functions of B1  symmetry.
   4         5   5   5   5
   5         6   7  -8  -9
 There are     2 symmetry adapted basis functions of B2  symmetry.
   6         4   4   4   4
   7         6  -7   8  -9
 There are     2 symmetry adapted basis functions of B3  symmetry.
   8         3   3   3   3
   9         6  -7  -8   9
 Order= 1 4 3 2
 Reordered character table:
              1            2            3            4            5
     1            1            1            1            1            1
     2            4            1           -1           -1            1
     3            3            1           -1            1           -1
     4            2            1            1           -1           -1
     9 basis functions,    27 primitive gaussians,     9 cartesian basis functions
     5 alpha electrons        5 beta electrons
       nuclear repulsion energy        13.4978430192 Hartrees.
 IS=     1 IAt=     1 ISR=     1 T=0 IP=      1 IndIP=      1 IndIPD=      0 C=  2.707814D+00  0.000000D+00                             NZ=T
 IS=     1 IAt=     1 ISR=     1 T=0 IP=      2 IndIP=      2 IndIPD=      1 C=  2.618880D+00  0.000000D+00                             NZ=T
 IS=     1 IAt=     1 ISR=     1 T=0 IP=      3 IndIP=      3 IndIPD=      2 C=  8.161906D-01  0.000000D+00                             NZ=T
 IS=     2 IAt=     1 ISR=     2 T=1 IP=      1 IndIP=      4 IndIPD=      0 C= -1.600172D-01  8.560445D-01                             NZ=T
 IS=     2 IAt=     1 ISR=     2 T=1 IP=      2 IndIP=      5 IndIPD=      1 C=  2.140359D-01  5.383038D-01                             NZ=T
 IS=     2 IAt=     1 ISR=     2 T=1 IP=      3 IndIP=      6 IndIPD=      2 C=  1.615361D-01  8.527636D-02                             NZ=T
 IS=     3 IAt=     2 ISR=     1 T=0 IP=      1 IndIP=      7 IndIPD=      0 C=  2.769344D-01  0.000000D+00                             NZ=T
 IS=     3 IAt=     2 ISR=     1 T=0 IP=      2 IndIP=      8 IndIPD=      1 C=  2.678389D-01  0.000000D+00                             NZ=T
 IS=     3 IAt=     2 ISR=     1 T=0 IP=      3 IndIP=      9 IndIPD=      2 C=  8.347367D-02  0.000000D+00                             NZ=T
 IS=     4 IAt=     3 ISR=     1 T=0 IP=      1 IndIP=     10 IndIPD=      0 C=  2.769344D-01  0.000000D+00                             NZ=T
 IS=     4 IAt=     3 ISR=     1 T=0 IP=      2 IndIP=     11 IndIPD=      1 C=  2.678389D-01  0.000000D+00                             NZ=T
 IS=     4 IAt=     3 ISR=     1 T=0 IP=      3 IndIP=     12 IndIPD=      2 C=  8.347367D-02  0.000000D+00                             NZ=T
 IS=     5 IAt=     4 ISR=     1 T=0 IP=      1 IndIP=     13 IndIPD=      0 C=  2.769344D-01  0.000000D+00                             NZ=T
 IS=     5 IAt=     4 ISR=     1 T=0 IP=      2 IndIP=     14 IndIPD=      1 C=  2.678389D-01  0.000000D+00                             NZ=T
 IS=     5 IAt=     4 ISR=     1 T=0 IP=      3 IndIP=     15 IndIPD=      2 C=  8.347367D-02  0.000000D+00                             NZ=T
 IS=     6 IAt=     5 ISR=     1 T=0 IP=      1 IndIP=     16 IndIPD=      0 C=  2.769344D-01  0.000000D+00                             NZ=T
 IS=     6 IAt=     5 ISR=     1 T=0 IP=      2 IndIP=     17 IndIPD=      1 C=  2.678389D-01  0.000000D+00                             NZ=T
 IS=     6 IAt=     5 ISR=     1 T=0 IP=      3 IndIP=     18 IndIPD=      2 C=  8.347367D-02  0.000000D+00                             NZ=T
 IExCor=    0 DFT=F Ex=HF Corr=None ExCW=0 ScaHFX=  1.000000
 ScaDFX=  1.000000  1.000000  1.000000  1.000000 ScalE2=  1.000000  1.000000
 IRadAn=      0 IRanWt=     -1 IRanGd=            0 ICorTp=0 IEmpDi=  4
 NAtoms=    5 NActive=    5 NUniq=    2 SFac= 4.00D+00 NAtFMM=   60 NAOKFM=F Big=F
 Integral buffers will be    131072 words long.
 Raffenetti 1 integral format.
 Two-electron integral symmetry is turned on.
 Pair potential:
 Leave Link  301 at Fri May 29 13:54:21 2015, MaxMem=    33554432 cpu:               0.1 elap:               0.1
 (Enter /home/gauss/gdvi02/gdv/l302.exe)
 NPDir=0 NMtPBC=     1 NCelOv=     1 NCel=       1 NClECP=     1 NCelD=      1
         NCelK=      1 NCelE2=     1 NClLst=     1 CellRange=     0.0.
 One-electron integrals computed using PRISM.
 One-electron integral symmetry used in STVInt
 Entering OneElI...
 OneElI was handed    33554094 working-precision words.
 Calculate overlap and kinetic energy integrals
    NBasis =   9  MinDer = 0  MaxDer = 0
 Requested accuracy = 0.1000D-12
 ShPair: Thresh= 1.00D-13 NBox=     0 BxSize= 0.00D+00 RnKept= 3.35D+00
         NSMCal=                   21 NSMKep=                  21
 Symmetry will be used
 Overlap and Kinetic Integrals          
 Derivative Range = 0 to 2  Logicals = T F F F F F
 The Identity operator will be used
 PrsmSu:  NPrtUS=   1 ThrOK=F IAlg=1 NPAlg=1 LenDen=           0.
 Prism:   IPart=     0 DynPar=F LinDyn=F Incr=           1.
 PRISM was handed    33549455 working-precision words and    21 shell-pairs
 PRISM will use Minimum- Mop paths
 [0] accuracy = 0.10D-12   Chebyshev Delta = 0.12D-02   Critical T = 28.20   # of points =  11979


           Zone         Bra Derivative Range     Ket Derivative Range
           ==========================================================
             1                 0 to 2                   0 to 0
           ==========================================================

                             -------------------
                             The (PP|ss) Classes
 Not enough memory for any path:
 MxKBra=    9 MxKKet=    1 Memory=    33538498.
                             -------------------

       Available PRISM Paths: 29

    No. of target [m0|n0]   =    35
    No. of locations needed =    36

       T1    T2    T3    T4    T5    T6    T7    T8    T9   T10   T11   T12
      189 99999 99999 99999     0     0     0     0     0     0     0     0
   C1   C2   C3   C4   C5   C6   C7   C8   C9  C10  C11  C12  C13  C14  C15  C16
9999999999999999999999999999999999999999    0    0    0    0  230  160  160  230
    0    0    0    0    0    0    0    0    0    0    0    0  160  160  160  160

                   VR1     cost =     349
                   Bra-TRn cost =     764
                   Ket-TRn cost =       0

                   Space needed for drivers          =   12669
                   Space needed for driver formation =   22667

                   KBra   KKet   Path     Mops    Wds/S4    MaxCom 

                   C37 =       0
                   C38 =       0
 Prsmar:  LTot= 4 LBK=  2  0 KBK=     9     1 Path=29 Kost=        5821 NPerS4=         873 nW0=         324 nW1=         118 nW2=         324
          nW0X=           0 NPS4B=         412 jNext=       12779 NLeft=    33536673 jEnd=      176031 LenV=    33549455 MaxCom=         187

                             -------------------
                             The (Ps|ss) Classes
 Not enough memory for any path:
 MxKBra=    9 MxKKet=    1 Memory=    33546506.
                             -------------------

       Available PRISM Paths: 29

    No. of target [m0|n0]   =    20
    No. of locations needed =    21

       T1    T2    T3    T4    T5    T6    T7    T8    T9   T10   T11   T12
       96 99999 99999 99999     0     0     0     0     0     0     0     0
   C1   C2   C3   C4   C5   C6   C7   C8   C9  C10  C11  C12  C13  C14  C15  C16
9999999999999999999999999999999999999999    0    0    0    0   50   40   40   50
    0    0    0    0    0    0    0    0    0    0    0    0   40   40   40   40

                   VR1     cost =     174
                   Bra-TRn cost =      89
                   Ket-TRn cost =       0

                   Space needed for drivers          =    3584
                   Space needed for driver formation =    5442

                   KBra   KKet   Path     Mops    Wds/S4    MaxCom 

                   C37 =       0
                   C38 =       0
 Prsmar:  LTot= 3 LBK=  1  0 KBK=     9     1 Path=29 Kost=        2197 NPerS4=         570 nW0=         189 nW1=          34 nW2=         189
          nW0X=           0 NPS4B=         268 jNext=        3821 NLeft=    33545631 jEnd=      167412 LenV=    33549455 MaxCom=         287

                             -------------------
                             The (ss|ss) Classes
 Not enough memory for any path:
 MxKBra=    9 MxKKet=    1 Memory=    33548456.
                             -------------------

       Available PRISM Paths: 29

    No. of target [m0|n0]   =    10
    No. of locations needed =    11

       T1    T2    T3    T4    T5    T6    T7    T8    T9   T10   T11   T12
       39 99999 99999 99999     0     0     0     0     0     0     0     0
   C1   C2   C3   C4   C5   C6   C7   C8   C9  C10  C11  C12  C13  C14  C15  C16
9999999999999999999999999999999999999999    0    0    0    0   10   10   10   10
    0    0    0    0    0    0    0    0    0    0    0    0   10   10   10   10

                   VR1     cost =      67
                   Bra-TRn cost =       9
                   Ket-TRn cost =       0

                   Space needed for drivers          =    1225
                   Space needed for driver formation =    1751

                   KBra   KKet   Path     Mops    Wds/S4    MaxCom 

                   C37 =       0
                   C38 =       0
 Prsmar:  LTot= 2 LBK=  0  0 KBK=     9     1 Path=29 Kost=         790 NPerS4=         406 nW0=          99 nW1=          11 nW2=          99
          nW0X=           0 NPS4B=         218 jNext=        1509 NLeft=    33547943 jEnd=      165128 LenV=    33549455 MaxCom=         403
 IPart=  0 NShTot=           7 NBatch=           3 AvBLen=         2.3
 PrSmSu:  NxtVal=              2.
 *** Overlap *** 
                1             2             3             4             5 
      1  0.100000D+01
      2  0.248362D+00  0.100000D+01
      3  0.000000D+00  0.000000D+00  0.100000D+01
      4  0.000000D+00  0.000000D+00  0.000000D+00  0.100000D+01
      5  0.000000D+00  0.000000D+00  0.000000D+00  0.000000D+00  0.100000D+01
      6  0.630131D-01  0.493660D+00  0.270778D+00  0.270778D+00  0.270778D+00
      7  0.630131D-01  0.493660D+00 -0.270778D+00 -0.270778D+00  0.270778D+00
      8  0.630131D-01  0.493660D+00 -0.270778D+00  0.270778D+00 -0.270778D+00
      9  0.630131D-01  0.493660D+00  0.270778D+00 -0.270778D+00 -0.270778D+00
                6             7             8             9 
      6  0.100000D+01
      7  0.171436D+00  0.100000D+01
      8  0.171436D+00  0.171436D+00  0.100000D+01
      9  0.171436D+00  0.171436D+00  0.171436D+00  0.100000D+01
 *** Kinetic Energy *** 
                1             2             3             4             5 
      1  0.158911D+02
      2 -0.858900D-01  0.472250D+00
      3  0.000000D+00  0.000000D+00  0.147773D+01
      4  0.000000D+00  0.000000D+00  0.000000D+00  0.147773D+01
      5  0.000000D+00  0.000000D+00  0.000000D+00  0.000000D+00  0.147773D+01
      6 -0.103428D-01  0.108515D+00  0.152587D+00  0.152587D+00  0.152587D+00
      7 -0.103428D-01  0.108515D+00 -0.152587D+00 -0.152587D+00  0.152587D+00
      8 -0.103428D-01  0.108515D+00 -0.152587D+00  0.152587D+00 -0.152587D+00
      9 -0.103428D-01  0.108515D+00  0.152587D+00 -0.152587D+00 -0.152587D+00
                6             7             8             9 
      6  0.760032D+00
      7 -0.530572D-02  0.760032D+00
      8 -0.530572D-02 -0.530572D-02  0.760032D+00
      9 -0.530572D-02 -0.530572D-02 -0.530572D-02  0.760032D+00
 Entering OneElI...
 OneElI was handed    33554094 working-precision words.
 Calculate potential energy integrals
    NBasis =   9  MinDer = 0  MaxDer = 0
 Requested accuracy = 0.1000D-12
 ShPair: Thresh= 1.00D-13 NBox=     0 BxSize= 0.00D+00 RnKept= 3.35D+00
         NSMCal=                   21 NSMKep=                  21
 Symmetry will be used
 Nuclear Attraction Integrals           
 The Coulomb operator will be used
 PrsmSu:  NPrtUS=   1 ThrOK=F IAlg=1 NPAlg=1 LenDen=           0.
 Prism:   IPart=     0 DynPar=F LinDyn=F Incr=           1.
 PRISM was handed    33549091 working-precision words and    21 shell-pairs
 PRISM will use Minimum- Mop paths
 [0] accuracy = 0.10D-12   Chebyshev Delta = 0.12D-02   Critical T = 28.20   # of points =  11979


           Zone         Bra Derivative Range     Ket Derivative Range
           ==========================================================
             1                 0 to 0                   0 to 0
           ==========================================================

                             -------------------
                             The (PP|ss) Classes
 Not enough memory for any path:
 MxKBra=    9 MxKKet=    1 Memory=    33451270.
                             -------------------

       Available PRISM Paths:  1  4  5 29

    No. of target [m0|n0]   =    10
    No. of locations needed =    11

       T1    T2    T3    T4    T5    T6    T7    T8    T9   T10   T11   T12
       39   123 99999 99999   102   111   102   111     0     0     0     0
   C1   C2   C3   C4   C5   C6   C7   C8   C9  C10  C11  C12  C13  C14  C15  C16
   17    0    0    0   23   10   23   23   16   16   16   16   16   16   16   16
  -17    0    0    0  -23  -10  -23  -23  -16  -16  -16  -16  -16  -16  -16  -16

                   VR1     cost =      67
                   Bra-TRn cost =      36
                   Ket-TRn cost =       0

                   Space needed for drivers          =    3103
                   Space needed for driver formation =    3537

                   KBra   KKet   Path     Mops    Wds/S4    MaxCom 

                   C37 =      40
                   C38 =      92
 Prsmar:  LTot= 2 LBK=  2  0 KBK=     9     1 Path= 1 Kost=         450 NPerS4=         342 nW0=          27 nW1=          24 nW2=          27
          nW0X=          16 NPS4B=         228 jNext=       99089 NLeft=    33449983 jEnd=      262908 LenV=    33549091 MaxCom=         479

                             -------------------
                             The (Ps|ss) Classes
 Not enough memory for any path:
 MxKBra=    9 MxKKet=    1 Memory=    33452849.
                             -------------------

       Available PRISM Paths:  1  4  5 29

    No. of target [m0|n0]   =     4
    No. of locations needed =     4

       T1    T2    T3    T4    T5    T6    T7    T8    T9   T10   T11   T12
        7    15 99999 99999    12    12    12    12     0     0     0     0
   C1   C2   C3   C4   C5   C6   C7   C8   C9  C10  C11  C12  C13  C14  C15  C16
    4    0    0    0    5    4    5    5    4    4    4    4    4    4    4    4
   -4    0    0    0   -5   -4   -5   -5   -4   -4   -4   -4   -4   -4   -4   -4

                   VR1     cost =      15
                   Bra-TRn cost =       0
                   Ket-TRn cost =       0

                   Space needed for drivers          =     676
                   Space needed for driver formation =     725

                   KBra   KKet   Path     Mops    Wds/S4    MaxCom 

                   C37 =      16
                   C38 =      20
 Prsmar:  LTot= 1 LBK=  1  0 KBK=     9     1 Path= 1 Kost=          77 NPerS4=         186 nW0=          18 nW1=           6 nW2=          18
          nW0X=           4 NPS4B=         102 jNext=       96663 NLeft=    33452421 jEnd=      260344 LenV=    33549091 MaxCom=         880

                             -------------------
                             The (ss|ss) Classes
 Not enough memory for any path:
 MxKBra=    9 MxKKet=    1 Memory=    33501087.
                             -------------------

       Available PRISM Paths:  1  4  5 29

    No. of target [m0|n0]   =     1
    No. of locations needed =     1

       T1    T2    T3    T4    T5    T6    T7    T8    T9   T10   T11   T12
        0     0 99999 99999     0     0     0     0     0     0     0     0
   C1   C2   C3   C4   C5   C6   C7   C8   C9  C10  C11  C12  C13  C14  C15  C16
    1    0    0    0    1    1    1    1    1    1    1    1    1    1    1    1
   -1    0    0    0   -1   -1   -1   -1   -1   -1   -1   -1   -1   -1   -1   -1

                   VR1     cost =       0
                   Bra-TRn cost =       0
                   Ket-TRn cost =       0

                   Space needed for drivers          =     162
                   Space needed for driver formation =     173

                   KBra   KKet   Path     Mops    Wds/S4    MaxCom 

                   C37 =       4
                   C38 =       4
 Prsmar:  LTot= 0 LBK=  0  0 KBK=     9     1 Path= 1 Kost=          12 NPerS4=         124 nW0=           9 nW1=           1 nW2=           9
          nW0X=           1 NPS4B=          70 jNext=       48096 NLeft=    33500991 jEnd=      211901 LenV=    33549091 MaxCom=        1321
 IPart=  0 NShTot=          35 NBatch=           7 AvBLen=         5.0
 PrSmSu:  NxtVal=              2.
 ***** Potential Energy ***** 
                1             2             3             4             5 
      1  0.356037D+02
      2  0.467677D+01  0.708459D+01
      3  0.000000D+00  0.000000D+00  0.704277D+01
      4  0.000000D+00  0.000000D+00  0.000000D+00  0.704277D+01
      5  0.000000D+00  0.000000D+00  0.000000D+00  0.000000D+00  0.704277D+01
      6  0.120784D+01  0.298175D+01  0.151177D+01  0.151177D+01  0.151177D+01
      7  0.120784D+01  0.298175D+01 -0.151177D+01 -0.151177D+01  0.151177D+01
      8  0.120784D+01  0.298175D+01 -0.151177D+01  0.151177D+01 -0.151177D+01
      9  0.120784D+01  0.298175D+01  0.151177D+01 -0.151177D+01 -0.151177D+01
                6             7             8             9 
      6  0.498366D+01
      7  0.934269D+00  0.498366D+01
      8  0.934269D+00  0.934269D+00  0.498366D+01
      9  0.934269D+00  0.934269D+00  0.934269D+00  0.498366D+01
 ****** Core Hamiltonian ****** 
                1             2             3             4             5 
      1 -0.197126D+02
      2 -0.476266D+01 -0.661234D+01
      3  0.000000D+00  0.000000D+00 -0.556505D+01
      4  0.000000D+00  0.000000D+00  0.000000D+00 -0.556505D+01
      5  0.000000D+00  0.000000D+00  0.000000D+00  0.000000D+00 -0.556505D+01
      6 -0.121818D+01 -0.287324D+01 -0.135919D+01 -0.135919D+01 -0.135919D+01
      7 -0.121818D+01 -0.287324D+01  0.135919D+01  0.135919D+01 -0.135919D+01
      8 -0.121818D+01 -0.287324D+01  0.135919D+01 -0.135919D+01  0.135919D+01
      9 -0.121818D+01 -0.287324D+01 -0.135919D+01  0.135919D+01  0.135919D+01
                6             7             8             9 
      6 -0.422363D+01
      7 -0.939575D+00 -0.422363D+01
      8 -0.939575D+00 -0.939575D+00 -0.422363D+01
      9 -0.939575D+00 -0.939575D+00 -0.939575D+00 -0.422363D+01
 SSO for IR=          1
                 1             2             3 
      1   0.100000D+01  0.248362D+00  0.126026D+00
      2   0.248362D+00  0.100000D+01  0.987320D+00
      3   0.126026D+00  0.987320D+00  0.151431D+01
 SVDSVc IOpt=   1 NormSV=T IR=1
 SVDSVc V= 2.33D+00 9.71D-01 2.18D-01
 V for IR=          1
                 1             2             3 
      1   0.187415D+00  0.969659D+00 -0.156964D+00
      2   0.609145D+00  0.106303D-01  0.792988D+00
      3   0.770596D+00 -0.244232D+00 -0.588670D+00
 SSO for IR=          2
                 1             2 
      1   0.100000D+01  0.541555D+00
      2   0.541555D+00  0.828564D+00
 SVDSVc IOpt=   1 NormSV=T IR=2
 SVDSVc V= 1.46D+00 3.66D-01
 V for IR=          2
                 1             2 
      1   0.760373D+00 -0.649486D+00
      2   0.649486D+00  0.760373D+00
 SSO for IR=          3
                 1             2 
      1   0.100000D+01  0.541555D+00
      2   0.541555D+00  0.828564D+00
 SVDSVc IOpt=   1 NormSV=T IR=3
 SVDSVc V= 1.46D+00 3.66D-01
 V for IR=          3
                 1             2 
      1   0.760373D+00 -0.649486D+00
      2   0.649486D+00  0.760373D+00
 SSO for IR=          4
                 1             2 
      1   0.100000D+01  0.541555D+00
      2   0.541555D+00  0.828564D+00
 SVDSVc IOpt=   1 NormSV=T IR=4
 SVDSVc V= 1.46D+00 3.66D-01
 V for IR=          4
                 1             2 
      1   0.760373D+00 -0.649486D+00
      2   0.649486D+00  0.760373D+00
 Vt*S*V: 
                1             2             3             4             5 
      1  0.100000D+01
      2  0.000000D+00  0.100000D+01
      3  0.000000D+00  0.000000D+00  0.100000D+01
      4  0.000000D+00  0.000000D+00  0.000000D+00  0.100000D+01
      5  0.000000D+00  0.000000D+00  0.000000D+00  0.000000D+00  0.100000D+01
      6  0.000000D+00  0.000000D+00  0.000000D+00  0.000000D+00  0.000000D+00
      7  0.000000D+00  0.000000D+00  0.000000D+00  0.000000D+00  0.000000D+00
      8  0.000000D+00  0.000000D+00  0.000000D+00  0.000000D+00  0.000000D+00
      9  0.000000D+00  0.000000D+00  0.000000D+00  0.000000D+00  0.000000D+00
                6             7             8             9 
      6  0.100000D+01
      7  0.000000D+00  0.100000D+01
      8  0.000000D+00  0.000000D+00  0.100000D+01
      9  0.000000D+00  0.000000D+00  0.000000D+00  0.100000D+01
 TstOVc:  Largest diagonal error= 1.78D-15 IB=1 I=    3.
 TstOVc:  Largest same sym error= 3.89D-16 IB=1 I=    3 J=    1.
 TstOVc:  Largest diff sym error= 1.39D-16 IB=3 JB=2 I=    7 J=    5.
 Orthogonalized basis functions: 
                 1             2             3             4             5 
      1   0.122901D+00  0.984042D+00 -0.336251D+00  0.000000D+00  0.000000D+00
      2   0.399457D+00  0.107879D-01  0.169875D+01  0.000000D+00  0.000000D+00
      3   0.000000D+00  0.000000D+00  0.000000D+00  0.000000D+00  0.000000D+00
      4   0.000000D+00  0.000000D+00  0.000000D+00  0.000000D+00  0.000000D+00
      5   0.000000D+00  0.000000D+00  0.000000D+00  0.628734D+00 -0.107359D+01
      6   0.252666D+00 -0.123928D+00 -0.630529D+00  0.268522D+00  0.628442D+00
      7   0.252666D+00 -0.123928D+00 -0.630529D+00  0.268522D+00  0.628442D+00
      8   0.252666D+00 -0.123928D+00 -0.630529D+00 -0.268522D+00 -0.628442D+00
      9   0.252666D+00 -0.123928D+00 -0.630529D+00 -0.268522D+00 -0.628442D+00
                 6             7             8             9 
      1   0.000000D+00  0.000000D+00  0.000000D+00  0.000000D+00
      2   0.000000D+00  0.000000D+00  0.000000D+00  0.000000D+00
      3   0.000000D+00  0.000000D+00  0.628734D+00 -0.107359D+01
      4   0.628734D+00 -0.107359D+01  0.000000D+00  0.000000D+00
      5   0.000000D+00  0.000000D+00  0.000000D+00  0.000000D+00
      6   0.268522D+00  0.628442D+00  0.268522D+00  0.628442D+00
      7  -0.268522D+00 -0.628442D+00 -0.268522D+00 -0.628442D+00
      8   0.268522D+00  0.628442D+00 -0.268522D+00 -0.628442D+00
      9  -0.268522D+00 -0.628442D+00  0.268522D+00  0.628442D+00
 NBasis=     9 RedAO= T EigKep=  2.18D-01  NBF=     3     2     2     2
 NBsUse=     9 1.00D-06 EigRej= -1.00D+00 NBFU=     3     2     2     2
 Leave Link  302 at Fri May 29 13:54:21 2015, MaxMem=    33554432 cpu:               0.1 elap:               0.1
 (Enter /home/gauss/gdvi02/gdv/l303.exe)
 GetPCM: File not found, return IValue=0.
 DipDrv:  MaxL=1.
 MemDpI: Int=      800000 Cav=           0 CFW=           0 Tot=      800000
 DipPsm:  J= 1 NJ= 4 MaxL=1 MMat= 4 MaxMat= 4.
 DipInt: DoE/N= T F RetVal/Mat= F T Init=T NMatP=  4 IDeriv=0 Min/MaxMlt=  0  1
 Entering OneElI...
 OneElI was handed    33554251 working-precision words.
 Multipole integrals L=0 to 1 MinM= 0 MaxM= 3.
 Requested accuracy = 0.1000D-12
 ShPair: Thresh= 1.00D-13 NBox=     0 BxSize= 0.00D+00 RnKept= 3.35D+00
         NSMCal=                   21 NSMKep=                  21
 Multipole Integrals                    
 The Identity operator will be used
 PrsmSu:  NPrtUS=   1 ThrOK=F IAlg=1 NPAlg=1 LenDen=           0.
 Prism:   IPart=     0 DynPar=F LinDyn=F Incr=           1.
 PRISM was handed    33550325 working-precision words and    21 shell-pairs
 PRISM will use Minimum- Mop paths
 [0] accuracy = 0.10D-12   Chebyshev Delta = 0.12D-02   Critical T = 28.20   # of points =  11979


           Zone         Bra Derivative Range     Ket Derivative Range
           ==========================================================
             1                 0 to 0                   0 to 0
           ==========================================================

                             -------------------
                             The (PP|ss) Classes
 Not enough memory for any path:
 MxKBra=    9 MxKKet=    1 Memory=    33547129.
                             -------------------

       Available PRISM Paths: 29

    No. of target [m0|n0]   =    20
    No. of locations needed =    21

       T1    T2    T3    T4    T5    T6    T7    T8    T9   T10   T11   T12
       96 99999 99999 99999     0     0     0     0     0     0     0     0
   C1   C2   C3   C4   C5   C6   C7   C8   C9  C10  C11  C12  C13  C14  C15  C16
9999999999999999999999999999999999999999    0    0    0    0   92   64   64   92
    0    0    0    0    0    0    0    0    0    0    0    0   64   64   64   64

                   VR1     cost =     174
                   Bra-TRn cost =     348
                   Ket-TRn cost =       0

                   Space needed for drivers          =    3945
                   Space needed for driver formation =    6388

                   KBra   KKet   Path     Mops    Wds/S4    MaxCom 

                   C37 =       0
                   C38 =       0
 Prsmar:  LTot= 3 LBK=  2  0 KBK=     9     1 Path=29 Kost=        2457 NPerS4=         750 nW0=         189 nW1=          42 nW2=         189
          nW0X=           0 NPS4B=         267 jNext=        3983 NLeft=    33546339 jEnd=      167484 LenV=    33550325 MaxCom=         218

                             -------------------
                             The (Ps|ss) Classes
 Not enough memory for any path:
 MxKBra=    9 MxKKet=    1 Memory=    33549407.
                             -------------------

       Available PRISM Paths: 29

    No. of target [m0|n0]   =    10
    No. of locations needed =    11

       T1    T2    T3    T4    T5    T6    T7    T8    T9   T10   T11   T12
       39 99999 99999 99999     0     0     0     0     0     0     0     0
   C1   C2   C3   C4   C5   C6   C7   C8   C9  C10  C11  C12  C13  C14  C15  C16
9999999999999999999999999999999999999999    0    0    0    0   20   16   16   20
    0    0    0    0    0    0    0    0    0    0    0    0   16   16   16   16

                   VR1     cost =      67
                   Bra-TRn cost =      48
                   Ket-TRn cost =       0

                   Space needed for drivers          =    1182
                   Space needed for driver formation =    1568

                   KBra   KKet   Path     Mops    Wds/S4    MaxCom 

                   C37 =       0
                   C38 =       0
 Prsmar:  LTot= 2 LBK=  1  0 KBK=     9     1 Path=29 Kost=         791 NPerS4=         463 nW0=          99 nW1=          13 nW2=          99
          nW0X=           0 NPS4B=         214 jNext=        1242 NLeft=    33549080 jEnd=      164682 LenV=    33550325 MaxCom=         353

                             -------------------
                             The (ss|ss) Classes
 Not enough memory for any path:
 MxKBra=    9 MxKKet=    1 Memory=    33550019.
                             -------------------

       Available PRISM Paths: 29

    No. of target [m0|n0]   =     4
    No. of locations needed =     4

       T1    T2    T3    T4    T5    T6    T7    T8    T9   T10   T11   T12
        7 99999 99999 99999     0     0     0     0     0     0     0     0
   C1   C2   C3   C4   C5   C6   C7   C8   C9  C10  C11  C12  C13  C14  C15  C16
9999999999999999999999999999999999999999    0    0    0    0    4    4    4    4
    0    0    0    0    0    0    0    0    0    0    0    0    4    4    4    4

                   VR1     cost =      15
                   Bra-TRn cost =      12
                   Ket-TRn cost =       0

                   Space needed for drivers          =     392
                   Space needed for driver formation =     506

                   KBra   KKet   Path     Mops    Wds/S4    MaxCom 

                   C37 =       0
                   C38 =       0
 Prsmar:  LTot= 1 LBK=  0  0 KBK=     9     1 Path=29 Kost=         179 NPerS4=         310 nW0=          36 nW1=           4 nW2=          36
          nW0X=           0 NPS4B=         196 jNext=         417 NLeft=    33549905 jEnd=      164098 LenV=    33550325 MaxCom=         528
 IPart=  0 NShTot=          21 NBatch=           3 AvBLen=         7.0
 PrSmSu:  NxtVal=              2.
 Multipole matrices IBuc=  518 IX=    1 IJ=           1:
                1             2             3             4             5 
      1  0.000000D+00
      2  0.000000D+00  0.000000D+00
      3  0.718555D-01  0.838744D+00  0.000000D+00
      4  0.000000D+00  0.000000D+00  0.000000D+00  0.000000D+00
      5  0.000000D+00  0.000000D+00  0.000000D+00  0.000000D+00  0.000000D+00
      6  0.478125D-02  0.306597D+00  0.519585D+00  0.163830D+00  0.163830D+00
      7 -0.478125D-02 -0.306597D+00  0.519585D+00  0.163830D+00 -0.163830D+00
      8 -0.478125D-02 -0.306597D+00  0.519585D+00 -0.163830D+00  0.163830D+00
      9  0.478125D-02  0.306597D+00  0.519585D+00 -0.163830D+00 -0.163830D+00
                6             7             8             9 
      6  0.118372D+01
      7  0.000000D+00 -0.118372D+01
      8  0.000000D+00 -0.202933D+00 -0.118372D+01
      9  0.202933D+00  0.000000D+00  0.000000D+00  0.118372D+01
 Multipole matrices IBuc=  518 IX=    2 IJ=           1:
                1             2             3             4             5 
      1  0.000000D+00
      2  0.000000D+00  0.000000D+00
      3  0.000000D+00  0.000000D+00  0.000000D+00
      4  0.718555D-01  0.838744D+00  0.000000D+00  0.000000D+00
      5  0.000000D+00  0.000000D+00  0.000000D+00  0.000000D+00  0.000000D+00
      6  0.478125D-02  0.306597D+00  0.163830D+00  0.519585D+00  0.163830D+00
      7 -0.478125D-02 -0.306597D+00  0.163830D+00  0.519585D+00 -0.163830D+00
      8  0.478125D-02  0.306597D+00 -0.163830D+00  0.519585D+00 -0.163830D+00
      9 -0.478125D-02 -0.306597D+00 -0.163830D+00  0.519585D+00  0.163830D+00
                6             7             8             9 
      6  0.118372D+01
      7  0.000000D+00 -0.118372D+01
      8  0.202933D+00  0.000000D+00  0.118372D+01
      9  0.000000D+00 -0.202933D+00  0.000000D+00 -0.118372D+01
 Multipole matrices IBuc=  518 IX=    3 IJ=           1:
                1             2             3             4             5 
      1  0.000000D+00
      2  0.000000D+00  0.000000D+00
      3  0.000000D+00  0.000000D+00  0.000000D+00
      4  0.000000D+00  0.000000D+00  0.000000D+00  0.000000D+00
      5  0.718555D-01  0.838744D+00  0.000000D+00  0.000000D+00  0.000000D+00
      6  0.478125D-02  0.306597D+00  0.163830D+00  0.163830D+00  0.519585D+00
      7  0.478125D-02  0.306597D+00 -0.163830D+00 -0.163830D+00  0.519585D+00
      8 -0.478125D-02 -0.306597D+00  0.163830D+00 -0.163830D+00  0.519585D+00
      9 -0.478125D-02 -0.306597D+00 -0.163830D+00  0.163830D+00  0.519585D+00
                6             7             8             9 
      6  0.118372D+01
      7  0.202933D+00  0.118372D+01
      8  0.000000D+00  0.000000D+00 -0.118372D+01
      9  0.000000D+00  0.000000D+00 -0.202933D+00 -0.118372D+01
 ReDoC1: IPurDI=1 IPurFI=1 IPurDO=0 IPurFO=0.
 MO coefficients before ReDoC1: 
                 1             2             3             4             5 
      1   0.614289D+01  0.000000D+00  0.000000D+00  0.000000D+00  0.000000D+00
      2   0.215555D+00  0.755510D-01  0.755510D-01  0.755510D-01  0.755510D-01
      3   0.000000D+00  0.756734D-01 -0.756734D-01 -0.756734D-01  0.756734D-01
      4   0.000000D+00  0.756734D-01 -0.756734D-01  0.756734D-01 -0.756734D-01
      5   0.000000D+00  0.756734D-01  0.756734D-01 -0.756734D-01 -0.756734D-01
      6   0.604947D-01  0.628247D+00  0.128209D-01  0.128209D-01  0.128209D-01
      7   0.604947D-01  0.128209D-01  0.628247D+00  0.128209D-01  0.128209D-01
      8   0.604947D-01  0.128209D-01  0.128209D-01  0.628247D+00  0.128209D-01
      9   0.604947D-01  0.128209D-01  0.128209D-01  0.128209D-01  0.628247D+00
 MO coefficients after ReDoC1: 
                 1             2             3             4             5 
      1   0.614289D+01  0.000000D+00  0.000000D+00  0.000000D+00  0.000000D+00
      2   0.215555D+00  0.755510D-01  0.755510D-01  0.755510D-01  0.755510D-01
      3   0.000000D+00  0.756734D-01 -0.756734D-01 -0.756734D-01  0.756734D-01
      4   0.000000D+00  0.756734D-01 -0.756734D-01  0.756734D-01 -0.756734D-01
      5   0.000000D+00  0.756734D-01  0.756734D-01 -0.756734D-01 -0.756734D-01
      6   0.604947D-01  0.628247D+00  0.128209D-01  0.128209D-01  0.128209D-01
      7   0.604947D-01  0.128209D-01  0.628247D+00  0.128209D-01  0.128209D-01
      8   0.604947D-01  0.128209D-01  0.128209D-01  0.628247D+00  0.128209D-01
      9   0.604947D-01  0.128209D-01  0.128209D-01  0.128209D-01  0.628247D+00
 Fermi contact integrals: 
                 1             2             3             4             5 
      1   0.614289D+01  0.000000D+00  0.000000D+00  0.000000D+00  0.000000D+00
      2   0.215555D+00  0.755510D-01  0.755510D-01  0.755510D-01  0.755510D-01
      3   0.000000D+00  0.756734D-01 -0.756734D-01 -0.756734D-01  0.756734D-01
      4   0.000000D+00  0.756734D-01 -0.756734D-01  0.756734D-01 -0.756734D-01
      5   0.000000D+00  0.756734D-01  0.756734D-01 -0.756734D-01 -0.756734D-01
      6   0.604947D-01  0.628247D+00  0.128209D-01  0.128209D-01  0.128209D-01
      7   0.604947D-01  0.128209D-01  0.628247D+00  0.128209D-01  0.128209D-01
      8   0.604947D-01  0.128209D-01  0.128209D-01  0.628247D+00  0.128209D-01
      9   0.604947D-01  0.128209D-01  0.128209D-01  0.128209D-01  0.628247D+00
 Leave Link  303 at Fri May 29 13:54:22 2015, MaxMem=    33554432 cpu:               0.0 elap:               0.0
 (Enter /home/gauss/gdvi02/gdv/l401.exe)
 ExpMin= 1.69D-01 ExpMax= 7.16D+01 ExpMxC= 7.16D+01 IAcc=1 IRadAn=         1 AccDes= 0.00D+00
 Harris functional with IExCor=  205 and IRadAn=       1 diagonalized for initial guess.
 HarFok:  IExCor=  205 AccDes= 0.00D+00 IRadAn=         1 IDoV= 1 UseB2=F ITyADJ=14
 ICtDFT=  3500011 ScaDFX=  1.000000  1.000000  1.000000  1.000000
 FoFCou: FMM=F IPFlag=           0 FMFlag=      100000 FMFlg1=           0
         NFxFlg=           0 DoJE=T BraDBF=F KetDBF=T FulRan=T
         wScrn=  0.000000 ICntrl=       500 IOpCl=  0 I1Cent=   200000004 NGrid=           0
         NMat0=    1 NMatS0=      1 NMatT0=    0 NMatD0=    1 NMtDS0=    0 NMtDT0=    0
 Petite list used in FoFCou.
 Harris En= -39.8831921746265    
 JPrj=0 DoOrth=F DoCkMO=F.
 Initial guess orbital symmetries:
       Occupied  (A1) (A1) (T2) (T2) (T2)
       Virtual   (T2) (T2) (T2) (A1)
 The electronic state of the initial guess is 1-A1.
 Leave Link  401 at Fri May 29 13:54:22 2015, MaxMem=    33554432 cpu:               0.1 elap:               0.1
 (Enter /home/gauss/gdvi02/gdv/l502.exe)
 Keep R1 ints in memory in symmetry-blocked form, NReq=805617.
 FoFCou: FMM=F IPFlag=           0 FMFlag=           0 FMFlg1=           0
         NFxFlg=           0 DoJE=F BraDBF=F KetDBF=F FulRan=T
         wScrn=  0.000000 ICntrl=       600 IOpCl=  0 I1Cent=           0 NGrid=           0
         NMat0=    1 NMatS0=     45 NMatT0=    0 NMatD0=    1 NMtDS0=    0 NMtDT0=    0
 Petite list used in FoFCou.
 Closed shell SCF:
 Using DIIS extrapolation, IDIIS=  1040.
 NGot=    33554432 LenX=    33552182 LenY=    33551300
 Requested convergence on RMS density matrix=1.00D-08 within 128 cycles.
 Requested convergence on MAX density matrix=1.00D-06.
 Requested convergence on             energy=1.00D-06.
 No special actions if energy rises.

 Cycle   1  Pass 1  IDiag  1:
 E= -39.6646173070062    
 DIIS: error= 5.92D-02 at cycle   1 NSaved=   1.
 NSaved= 1 IEnMin= 1 EnMin= -39.6646173070062     IErMin= 1 ErrMin= 5.92D-02
 ErrMax= 5.92D-02  0.00D+00 EMaxC= 1.00D-01 BMatC= 5.32D-02 BMatP= 5.32D-02
 IDIUse=3 WtCom= 4.08D-01 WtEn= 5.92D-01
 Coeff-Com:  0.100D+01
 Coeff-En:   0.100D+01
 Coeff:      0.100D+01
 Gap=     1.220 Goal=   None    Shift=    0.000
 GapD=    1.220 DampG=2.000 DampE=0.500 DampFc=1.0000 IDamp=-1.
 RMSDP=3.69D-02 MaxDP=1.28D-01              OVMax= 0.00D+00

 Cycle   2  Pass 1  IDiag  1:
 E= -39.7249583442048     Delta-E=       -0.060341037199 Rises=F Damp=F
 DIIS: error= 1.23D-02 at cycle   2 NSaved=   2.
 NSaved= 2 IEnMin= 2 EnMin= -39.7249583442048     IErMin= 2 ErrMin= 1.23D-02
 ErrMax= 1.23D-02  0.00D+00 EMaxC= 1.00D-01 BMatC= 1.81D-03 BMatP= 5.32D-02
 IDIUse=3 WtCom= 8.77D-01 WtEn= 1.23D-01
 Coeff-Com:  0.123D+00 0.877D+00
 Coeff-En:   0.000D+00 0.100D+01
 Coeff:      0.108D+00 0.892D+00
 Gap=     1.236 Goal=   None    Shift=    0.000
 RMSDP=5.90D-03 MaxDP=2.63D-02 DE=-6.03D-02 OVMax= 0.00D+00

 Cycle   3  Pass 1  IDiag  1:
 E= -39.7268418791115     Delta-E=       -0.001883534907 Rises=F Damp=F
 DIIS: error= 6.59D-04 at cycle   3 NSaved=   3.
 NSaved= 3 IEnMin= 3 EnMin= -39.7268418791115     IErMin= 3 ErrMin= 6.59D-04
 ErrMax= 6.59D-04  0.00D+00 EMaxC= 1.00D-01 BMatC= 5.88D-06 BMatP= 1.81D-03
 IDIUse=3 WtCom= 9.93D-01 WtEn= 6.59D-03
 Coeff-Com: -0.978D-02-0.910D-02 0.102D+01
 Coeff-En:   0.000D+00 0.000D+00 0.100D+01
 Coeff:     -0.971D-02-0.904D-02 0.102D+01
 Gap=     1.237 Goal=   None    Shift=    0.000
 RMSDP=3.82D-04 MaxDP=1.24D-03 DE=-1.88D-03 OVMax= 0.00D+00

 Cycle   4  Pass 1  IDiag  1:
 E= -39.7268506834187     Delta-E=       -0.000008804307 Rises=F Damp=F
 DIIS: error= 1.54D-04 at cycle   4 NSaved=   4.
 NSaved= 4 IEnMin= 4 EnMin= -39.7268506834187     IErMin= 4 ErrMin= 1.54D-04
 ErrMax= 1.54D-04  0.00D+00 EMaxC= 1.00D-01 BMatC= 1.24D-07 BMatP= 5.88D-06
 IDIUse=3 WtCom= 9.98D-01 WtEn= 1.54D-03
 Coeff-Com:  0.269D-02-0.147D-02-0.315D+00 0.131D+01
 Coeff-En:   0.000D+00 0.000D+00 0.000D+00 0.100D+01
 Coeff:      0.269D-02-0.147D-02-0.314D+00 0.131D+01
 Gap=     1.237 Goal=   None    Shift=    0.000
 RMSDP=7.61D-05 MaxDP=5.26D-04 DE=-8.80D-06 OVMax= 0.00D+00

 Cycle   5  Pass 1  IDiag  1:
 E= -39.7268508881870     Delta-E=       -0.000000204768 Rises=F Damp=F
 DIIS: error= 4.85D-07 at cycle   5 NSaved=   5.
 NSaved= 5 IEnMin= 5 EnMin= -39.7268508881870     IErMin= 5 ErrMin= 4.85D-07
 ErrMax= 4.85D-07  0.00D+00 EMaxC= 1.00D-01 BMatC= 2.40D-12 BMatP= 1.24D-07
 IDIUse=1 WtCom= 1.00D+00 WtEn= 0.00D+00
 Coeff-Com: -0.321D-05-0.453D-04 0.862D-04 0.202D-02 0.998D+00
 Coeff:     -0.321D-05-0.453D-04 0.862D-04 0.202D-02 0.998D+00
 Gap=     1.237 Goal=   None    Shift=    0.000
 RMSDP=1.98D-07 MaxDP=6.60D-07 DE=-2.05D-07 OVMax= 0.00D+00

 Cycle   6  Pass 1  IDiag  1:
 E= -39.7268508881892     Delta-E=       -0.000000000002 Rises=F Damp=F
 DIIS: error= 6.22D-10 at cycle   6 NSaved=   6.
 NSaved= 6 IEnMin= 6 EnMin= -39.7268508881892     IErMin= 6 ErrMin= 6.22D-10
 ErrMax= 6.22D-10  0.00D+00 EMaxC= 1.00D-01 BMatC= 5.74D-18 BMatP= 2.40D-12
 IDIUse=1 WtCom= 1.00D+00 WtEn= 0.00D+00
 Large coefficients: NSaved=  6 BigCof=    0.00 CofMax=   10.00 Det= 2.12D-28
 Inversion failed.  Reducing to  5 matrices.
 Coeff-Com: -0.176D-09 0.125D-06-0.242D-05 0.147D-02 0.999D+00
 Coeff:     -0.176D-09 0.125D-06-0.242D-05 0.147D-02 0.999D+00
 Gap=     1.237 Goal=   None    Shift=    0.000
 RMSDP=3.60D-10 MaxDP=1.43D-09 DE=-2.17D-12 OVMax= 0.00D+00

 SCF Done:  E(RHF) =  -39.7268508882     A.U. after    6 cycles
            NFock=  6  Conv=0.36D-09     -V/T= 2.0068
 KE= 3.945952879241D+01 PE=-1.189086879068D+02 EE= 2.622446520696D+01
 Leave Link  502 at Fri May 29 13:54:22 2015, MaxMem=    33554432 cpu:               0.1 elap:               0.1
 (Enter /home/gauss/gdvi02/gdv/l601.exe)
 Copying SCF densities to generalized density rwf, IOpCl= 0 IROHF=0.

 **********************************************************************

            Population analysis using the SCF density.

 **********************************************************************

 Orbital symmetries:
       Occupied  (A1) (A1) (T2) (T2) (T2)
       Virtual   (T2) (T2) (T2) (A1)
 The electronic state is 1-A1.
 Alpha  occ. eigenvalues --  -11.02985  -0.91109  -0.51972  -0.51972  -0.51972
 Alpha virt. eigenvalues --    0.71749   0.71749   0.71749   0.75810
     Molecular Orbital Coefficients:
                           1         2         3         4         5
                        (A1)--O   (A1)--O   (T2)--O   (T2)--O   (T2)--O
     Eigenvalues --   -11.02985  -0.91109  -0.51972  -0.51972  -0.51972
   1 1   C  1S          0.99193  -0.22136   0.00000   0.00000   0.00000
   2        2S          0.03826   0.62813   0.00000   0.00000   0.00000
   3        2PX         0.00000   0.00000   0.57173   0.00000   0.00000
   4        2PY         0.00000   0.00000   0.00000   0.57173   0.00000
   5        2PZ         0.00000   0.00000   0.00000   0.00000   0.57173
   6 2   H  1S         -0.00698   0.18062   0.30102   0.30102   0.30102
   7 3   H  1S         -0.00698   0.18062  -0.30102  -0.30102   0.30102
   8 4   H  1S         -0.00698   0.18062  -0.30102   0.30102  -0.30102
   9 5   H  1S         -0.00698   0.18062   0.30102  -0.30102  -0.30102
                           6         7         8         9
                        (T2)--V   (T2)--V   (T2)--V   (A1)--V
     Eigenvalues --     0.71749   0.71749   0.71749   0.75810
   1 1   C  1S          0.00000   0.00000   0.00000  -0.25214
   2        2S          0.00000   0.00000   0.00000   1.62771
   3        2PX         0.00000   0.00000   1.10500   0.00000
   4        2PY         0.00000   1.10500   0.00000   0.00000
   5        2PZ         1.10500   0.00000   0.00000   0.00000
   6 2   H  1S         -0.61354  -0.61354  -0.61354  -0.66640
   7 3   H  1S         -0.61354   0.61354   0.61354  -0.66640
   8 4   H  1S          0.61354  -0.61354   0.61354  -0.66640
   9 5   H  1S          0.61354   0.61354  -0.61354  -0.66640
     Density Matrix:
                           1         2         3         4         5
   1 1   C  1S          2.06587
   2        2S         -0.20217   0.79202
   3        2PX         0.00000   0.00000   0.65374
   4        2PY         0.00000   0.00000   0.00000   0.65374
   5        2PZ         0.00000   0.00000   0.00000   0.00000   0.65374
   6 2   H  1S         -0.09382   0.22637   0.34420   0.34420   0.34420
   7 3   H  1S         -0.09382   0.22637  -0.34420  -0.34420   0.34420
   8 4   H  1S         -0.09382   0.22637  -0.34420   0.34420  -0.34420
   9 5   H  1S         -0.09382   0.22637   0.34420  -0.34420  -0.34420
                           6         7         8         9
   6 2   H  1S          0.60903
   7 3   H  1S         -0.11588   0.60903
   8 4   H  1S         -0.11588  -0.11588   0.60903
   9 5   H  1S         -0.11588  -0.11588  -0.11588   0.60903
    Full Mulliken population analysis:
                           1         2         3         4         5
   1 1   C  1S          2.06587
   2        2S         -0.05021   0.79202
   3        2PX         0.00000   0.00000   0.65374
   4        2PY         0.00000   0.00000   0.00000   0.65374
   5        2PZ         0.00000   0.00000   0.00000   0.00000   0.65374
   6 2   H  1S         -0.00591   0.11175   0.09320   0.09320   0.09320
   7 3   H  1S         -0.00591   0.11175   0.09320   0.09320   0.09320
   8 4   H  1S         -0.00591   0.11175   0.09320   0.09320   0.09320
   9 5   H  1S         -0.00591   0.11175   0.09320   0.09320   0.09320
                           6         7         8         9
   6 2   H  1S          0.60903
   7 3   H  1S         -0.01987   0.60903
   8 4   H  1S         -0.01987  -0.01987   0.60903
   9 5   H  1S         -0.01987  -0.01987  -0.01987   0.60903
     Gross orbital populations:
                           1
   1 1   C  1S          1.99201
   2        2S          1.18881
   3        2PX         1.02655
   4        2PY         1.02655
   5        2PZ         1.02655
   6 2   H  1S          0.93488
   7 3   H  1S          0.93488
   8 4   H  1S          0.93488
   9 5   H  1S          0.93488
          Condensed to atoms (all electrons):
               1          2          3          4          5
     1  C    4.718686   0.385448   0.385448   0.385448   0.385448
     2  H    0.385448   0.609031  -0.019866  -0.019866  -0.019866
     3  H    0.385448  -0.019866   0.609031  -0.019866  -0.019866
     4  H    0.385448  -0.019866  -0.019866   0.609031  -0.019866
     5  H    0.385448  -0.019866  -0.019866  -0.019866   0.609031
 Mulliken charges:
               1
     1  C   -0.260479
     2  H    0.065120
     3  H    0.065120
     4  H    0.065120
     5  H    0.065120
 Sum of Mulliken charges =   0.00000
 Mulliken charges with hydrogens summed into heavy atoms:
               1
     1  C    0.000000
 Electronic spatial extent (au):  <R**2>=             34.3030
 Charge=              0.0000 electrons
 Dipole moment (field-independent basis, Debye):
    X=              0.0000    Y=              0.0000    Z=              0.0000  Tot=              0.0000
 Quadrupole moment (field-independent basis, Debye-Ang):
   XX=             -7.8409   YY=             -7.8409   ZZ=             -7.8409
   XY=              0.0000   XZ=              0.0000   YZ=              0.0000
 Traceless Quadrupole moment (field-independent basis, Debye-Ang):
   XX=              0.0000   YY=              0.0000   ZZ=              0.0000
   XY=              0.0000   XZ=              0.0000   YZ=              0.0000
 Octapole moment (field-independent basis, Debye-Ang**2):
  XXX=              0.0000  YYY=              0.0000  ZZZ=              0.0000  XYY=              0.0000
  XXY=              0.0000  XXZ=              0.0000  XZZ=              0.0000  YZZ=              0.0000
  YYZ=              0.0000  XYZ=              0.5788
 Hexadecapole moment (field-independent basis, Debye-Ang**3):
 XXXX=            -13.7199 YYYY=            -13.7199 ZZZZ=            -13.7199 XXXY=              0.0000
 XXXZ=              0.0000 YYYX=              0.0000 YYYZ=              0.0000 ZZZX=              0.0000
 ZZZY=              0.0000 XXYY=             -4.1936 XXZZ=             -4.1936 YYZZ=             -4.1936
 XXYZ=              0.0000 YYXZ=              0.0000 ZZXY=              0.0000
 N-N= 1.349784301922D+01 E-N=-1.189086878996D+02  KE= 3.945952879241D+01
 Symmetry A    KE= 3.363646018625D+01
 Symmetry B1   KE= 1.941022868720D+00
 Symmetry B2   KE= 1.941022868720D+00
 Symmetry B3   KE= 1.941022868720D+00
 Orbital energies and kinetic energies (alpha):
                                 1                 2
   1         (A1)--O         -11.029853         15.630478
   2         (A1)--O          -0.911086          1.187752
   3         (T2)--O          -0.519725          0.970511
   4         (T2)--O          -0.519725          0.970511
   5         (T2)--O          -0.519725          0.970511
   6         (T2)--V           0.717489          2.129150
   7         (T2)--V           0.717489          2.129150
   8         (T2)--V           0.717489          2.129150
   9         (A1)--V           0.758103          2.698247
 Total kinetic energy from orbitals= 3.945952879241D+01
 No NMR shielding tensors so no spin-rotation constants.
 Leave Link  601 at Fri May 29 13:54:22 2015, MaxMem=    33554432 cpu:               0.1 elap:               0.1
 (Enter /home/gauss/gdvi02/gdv/l9999.exe)
 Unable to Open any file for archive entry.
 1\1\GINC-MEDUSA\SP\RHF\STO-3G\C1H4\DBWY\29-May-2015\0\\#p hf/sto-3g GF
 Input pop=full iop33(3=5) output=RawMatrixElement units=bohr\\CH4 STO-
 3G SCF\\0,1\C,0,0.,0.,0.\H,0,0.6264000029,-0.6264000029,-0.6264000029\
 H,0,0.6264000029,0.6264000029,0.6264000029\H,0,-0.6264000029,0.6264000
 029,-0.6264000029\H,0,-0.6264000029,-0.6264000029,0.6264000029\\Versio
 n=ES64L-GDVRevI.02\State=1-A1\HF=-39.7268509\RMSD=3.598e-10\Dipole=0.,
 0.,0.\Quadrupole=0.,0.,0.,0.,0.,0.\PG=TD [O(C1),4C3(H1)]\\@
 The archive entry for this job was punched.


 IF YOU GIVE EVERYONE A PIECE OF YOUR MIND,
 PRETTY SOON IT WILL BE ALL GONE.

 Writing WrtUnf raw file "ch4_sto3g.matel"
 Gaussian matrix elements                                         Version   2 NLab=11 Len12L=4 Len4L=4
 WrtUnf:  Coordinates translated and rotated.
 WrtUnf:  Coordinates match /B/ after translation and rotation.
 Write SHELL TO ATOM MAP                   from file     0 offset           0 length                   6 to matrix element file.
 Write SHELL TYPES                         from file     0 offset           0 length                   6 to matrix element file.
 Write NUMBER OF PRIMITIVES PER SHELL      from file     0 offset           0 length                   6 to matrix element file.
 Write PRIMITIVE EXPONENTS                 from file     0 offset           0 length                  18 to matrix element file.
 Write CONTRACTION COEFFICIENTS            from file     0 offset           0 length                  18 to matrix element file.
 Write P(S=P) CONTRACTION COEFFICIENTS     from file     0 offset           0 length                  18 to matrix element file.
 Write COORDINATES OF EACH SHELL           from file     0 offset           0 length                  18 to matrix element file.
 Write BONDS PER ATOM                      from file     0 offset           0 length                   5 to matrix element file.
 Write BONDED ATOMS                        from file     0 offset           0 length                   8 to matrix element file.
 Write BOND TYPES                          from file     0 offset           0 length                   8 to matrix element file.
 Write GAUSSIAN SCALARS                    from file   501 offset           0 to matrix element file.
 Write INTEGER ISO                         from file     0 offset           0 length                   5 to matrix element file.
 Write INTEGER SPIN                        from file     0 offset           0 length                   5 to matrix element file.
 Write REAL ZEFFECTIVE                     from file     0 offset           0 length                   5 to matrix element file.
 Write REAL GFACTOR                        from file     0 offset           0 length                   5 to matrix element file.
 Write REAL ZNUCLEAR                       from file     0 offset           0 length                   5 to matrix element file.
 Write NUCLEAR GRADIENT                    from file 10584 offset           0 length                  15 to matrix element file.
 Array NUCLEAR FORCE CONSTANTS              on  file 10585 does not exist.
 Write ELECTRIC DIPOLE MOMENT              from file     0 offset           0 length                   3 to matrix element file.
 Write OVERLAP                             from file   514 offset           0 length                  45 to matrix element file.
 Write CORE HAMILTONIAN ALPHA              from file   515 offset           0 length                  45 to matrix element file.
 Write CORE HAMILTONIAN BETA               from file   515 offset          45 length                  45 to matrix element file.
 Write KINETIC ENERGY                      from file   516 offset           0 length                  45 to matrix element file.
 Write ORTHOGONAL BASIS                    from file   685 offset           0 length                  81 to matrix element file.
 Write DIPOLE INTEGRALS                    from file   518 offset           0 length                 135 to matrix element file.
 Array DIP VEL INTEGRALS                    on  file   572 does not exist.
 Array R X DEL INTEGRALS                    on  file   572 does not exist.
 Write ALPHA ORBITAL ENERGIES              from file     0 offset           0 length                   9 to matrix element file.
 Write ALPHA MO COEFFICIENTS               from file 10524 offset           0 length                  81 to matrix element file.
 Write ALPHA DENSITY MATRIX                from file 10528 offset           0 length                  45 to matrix element file.
 Write ALPHA SCF DENSITY MATRIX            from file 10528 offset           0 length                  45 to matrix element file.
 Write ALPHA FOCK MATRIX                   from file 10536 offset           0 length                  45 to matrix element file.
 No 2e integrals to process.
 Job cpu time:       0 days  0 hours  0 minutes  0.9 seconds.
 Elapsed time:       0 days  0 hours  0 minutes  0.7 seconds.
 File lengths (MBytes):  RWF=      5 Int=      0 D2E=      0 Chk=      1 Scr=      1
 Normal termination of Gaussian DV at Fri May 29 13:54:22 2015.
