 Entering Gaussian System, Link 0=gdv
 Input=ch4_6311+G2dp.com
 Output=ch4_6311+G2dp.log
 Initial command:
 /home/gauss/gdvi02/gdv/l1.exe "/home/GauScr/Gau-25748.inp" -scrdir="/home/GauScr/"
 Entering Link 1 = /home/gauss/gdvi02/gdv/l1.exe PID=     25749.
  
 Copyright (c) 1988,1990,1992,1993,1995,1998,2003,2009,2014,
            Gaussian, Inc.  All Rights Reserved.
  
 This is the private, development version of
 the Gaussian(R) DV system of programs. It is based on
 the Gaussian(R) 09 system (copyright 2009, Gaussian, Inc.),
 the Gaussian(R) 03 system (copyright 2003, Gaussian, Inc.),
 the Gaussian(R) 98 system (copyright 1998, Gaussian, Inc.),
 the Gaussian(R) 94 system (copyright 1995, Gaussian, Inc.),
 the Gaussian 92(TM) system (copyright 1992, Gaussian, Inc.),
 the Gaussian 90(TM) system (copyright 1990, Gaussian, Inc.),
 the Gaussian 88(TM) system (copyright 1988, Gaussian, Inc.),
 the Gaussian 86(TM) system (copyright 1986, Carnegie Mellon
 University), and the Gaussian 82(TM) system (copyright 1983,
 Carnegie Mellon University). Gaussian is a federally registered
 trademark of Gaussian, Inc.
  
 This software contains proprietary and confidential information,
 including trade secrets, belonging to Gaussian, Inc.
  
 This software is provided under written license and may be
 used, copied, transmitted, or stored only in accord with that
 written license.
  
 The following legend is applicable only to US Government
 contracts under FAR:
  
                    RESTRICTED RIGHTS LEGEND
  
 Use, reproduction and disclosure by the US Government is
 subject to restrictions as set forth in subparagraphs (a)
 and (c) of the Commercial Computer Software - Restricted
 Rights clause in FAR 52.227-19.
  
 Gaussian, Inc.
 340 Quinnipiac St., Bldg. 40, Wallingford CT 06492
  
  
 ---------------------------------------------------------------
 Warning -- This program may not be used in any manner that
 competes with the business of Gaussian, Inc. or will provide
 assistance to any competitor of Gaussian, Inc.  The licensee
 of this program is prohibited from giving any competitor of
 Gaussian, Inc. access to this program.  By using this program,
 the user acknowledges that Gaussian, Inc. is engaged in the
 business of creating and licensing software in the field of
 computational chemistry and represents and warrants to the
 licensee that it is not a competitor of Gaussian, Inc. and that
 it will not use this program in any manner prohibited above.
 ---------------------------------------------------------------
  

 Cite this work as:
 Gaussian Development Version, Revision I.02,
 M. J. Frisch, G. W. Trucks, H. B. Schlegel, G. E. Scuseria, 
 M. A. Robb, J. R. Cheeseman, G. Scalmani, V. Barone, B. Mennucci, 
 G. A. Petersson, H. Nakatsuji, M. Caricato, X. Li, H. P. Hratchian, 
 J. Bloino, B. G. Janesko, A. F. Izmaylov, F. Lipparini, G. Zheng, 
 J. L. Sonnenberg, W. Liang, M. Hada, M. Ehara, K. Toyota, R. Fukuda, 
 J. Hasegawa, M. Ishida, T. Nakajima, Y. Honda, O. Kitao, H. Nakai, 
 T. Vreven, K. Throssell, J. A. Montgomery, Jr., J. E. Peralta, 
 F. Ogliaro, M. Bearpark, J. J. Heyd, E. Brothers, K. N. Kudin, 
 V. N. Staroverov, T. Keith, R. Kobayashi, J. Normand, 
 K. Raghavachari, A. Rendell, J. C. Burant, S. S. Iyengar, J. Tomasi, 
 M. Cossi, N. Rega, J. M. Millam, M. Klene, J. E. Knox, J. B. Cross, 
 V. Bakken, C. Adamo, J. Jaramillo, R. Gomperts, R. E. Stratmann, 
 O. Yazyev, A. J. Austin, R. Cammi, C. Pomelli, J. W. Ochterski, 
 R. L. Martin, K. Morokuma, V. G. Zakrzewski, G. A. Voth, 
 P. Salvador, J. J. Dannenberg, S. Dapprich, P. V. Parandekar, 
 N. J. Mayhall, A. D. Daniels, O. Farkas, J. B. Foresman, 
 J. V. Ortiz, J. Cioslowski, and D. J. Fox, 
 Gaussian, Inc., Wallingford CT, 2014.
 
 ******************************************
 Gaussian DV:  ES64L-GDVRevI.02  7-Dec-2014
                29-May-2015 
 ******************************************
 ----------------------------------------------------------------------
 #p hf/6-311+G(2d,p) GFInput pop=full iop33(3=5) output=RawMatrixElemen
 t units=bohr 6D
 ----------------------------------------------------------------------
 1/20=1,38=1,172=1/1;
 2/12=2,17=6,18=5,40=1/2;
 3/5=4,6=6,7=112,8=2,11=9,24=10,25=1,30=1,33=5,160=2000000/1,2,3;
 4//1;
 5/5=2,38=5/2;
 6/7=3,28=1,125=2000000/1;
 99/5=1,6=100000,9=1,125=2000000/99;
 Leave Link    1 at Fri May 29 15:52:03 2015, MaxMem=           0 cpu:               0.0 elap:               0.1
 (Enter /home/gauss/gdvi02/gdv/l101.exe)
 -------------
 CH4 6-31G SCF
 -------------
 Symbolic Z-matrix:
 Charge =  0 Multiplicity = 1
 6                     0.        0.        0. 
 1                     1.18372  -1.18372  -1.18372 
 1                     1.18372   1.18372   1.18372 
 1                    -1.18372   1.18372  -1.18372 
 1                    -1.18372  -1.18372   1.18372 
 
 ITRead=  0  0  0  0  0
 MicOpt= -1 -1 -1 -1 -1
 NAtoms=      5 NQM=        5 NQMF=       0 NMMI=      0 NMMIF=      0
                NMic=       0 NMicF=      0.
                    Isotopes and Nuclear Properties:
 (Nuclear quadrupole moments (NQMom) in fm**2, nuclear magnetic moments (NMagM)
  in nuclear magnetons)

  Atom         1           2           3           4           5
 IAtWgt=          12           1           1           1           1
 AtmWgt=  12.0000000   1.0078250   1.0078250   1.0078250   1.0078250
 NucSpn=           0           1           1           1           1
 AtZEff=   0.0000000   0.0000000   0.0000000   0.0000000   0.0000000
 NQMom=    0.0000000   0.0000000   0.0000000   0.0000000   0.0000000
 NMagM=    0.0000000   2.7928460   2.7928460   2.7928460   2.7928460
 AtZNuc=   6.0000000   1.0000000   1.0000000   1.0000000   1.0000000
 Leave Link  101 at Fri May 29 15:52:03 2015, MaxMem=    33554432 cpu:               0.1 elap:               0.1
 (Enter /home/gauss/gdvi02/gdv/l202.exe)
                          Input orientation:                          
 ---------------------------------------------------------------------
 Center     Atomic      Atomic             Coordinates (Angstroms)
 Number     Number       Type             X           Y           Z
 ---------------------------------------------------------------------
      1          6           0        0.000000    0.000000    0.000000
      2          1           0        0.626400   -0.626400   -0.626400
      3          1           0        0.626400    0.626400    0.626400
      4          1           0       -0.626400    0.626400   -0.626400
      5          1           0       -0.626400   -0.626400    0.626400
 ---------------------------------------------------------------------
                    Distance matrix (angstroms):
                    1          2          3          4          5
     1  C    0.000000
     2  H    1.084957   0.000000
     3  H    1.084957   1.771727   0.000000
     4  H    1.084957   1.771727   1.771727   0.000000
     5  H    1.084957   1.771727   1.771727   1.771727   0.000000
 Stoichiometry    CH4
 Framework group  TD[O(C),4C3(H)]
 Deg. of freedom     1
 Full point group                 TD      NOp  24
 Largest Abelian subgroup         D2      NOp   4
 Largest concise Abelian subgroup D2      NOp   4
                         Standard orientation:                         
 ---------------------------------------------------------------------
 Center     Atomic      Atomic             Coordinates (Angstroms)
 Number     Number       Type             X           Y           Z
 ---------------------------------------------------------------------
      1          6           0        0.000000    0.000000    0.000000
      2          1           0        0.626400    0.626400    0.626400
      3          1           0       -0.626400   -0.626400    0.626400
      4          1           0       -0.626400    0.626400   -0.626400
      5          1           0        0.626400   -0.626400   -0.626400
 ---------------------------------------------------------------------
 Rotational constants (GHZ):    159.7491542    159.7491542    159.7491542
 Leave Link  202 at Fri May 29 15:52:03 2015, MaxMem=    33554432 cpu:               0.0 elap:               0.0
 (Enter /home/gauss/gdvi02/gdv/l301.exe)
 Standard basis: 6-311+G(2d,p) (6D, 7F)
                         Coordinates in L301:                         
 ---------------------------------------------------------------------
 Center     Atomic      Atomic             Coordinates (Angstroms)
 Number     Number       Type             X           Y           Z
 ---------------------------------------------------------------------
      1          6           0        0.000000    0.000000    0.000000
      2          1           0        0.626400    0.626400    0.626400
      3          1           0       -0.626400   -0.626400    0.626400
      4          1           0       -0.626400    0.626400   -0.626400
      5          1           0        0.626400   -0.626400   -0.626400
 ---------------------------------------------------------------------
 FixB: optimizing general contractions.
 Ernie: Thresh=  0.10000D-02 Tol=  0.10000D-05 Strict=F.
 IA=     1 ShT= 0 ShC= 0 NL=   1 NS=   0.
         I=   1 JX=   6 NP=   1
 IA=     1 L=0 SC=0 ISt=    0 NBk=    0 NP=    0 IndPr=    0.
 IA=     1 ShT= 1 ShC= 0 NL=   4 NS=   3.
         I=   1 JX=   2 NP=   3
         I=   2 JX=   3 NP=   1
         I=   3 JX=   4 NP=   1
         I=   4 JX=   5 NP=   1
 IA=     1 L=1 SC=0 ISt=    0 NBk=    0 NP=    0 IndPr=    0.
 IA=     1 ShT= 2 ShC= 2 NL=   2 NS=   2.
         I=   1 JX=   6 NP=   1
         I=   2 JX=   7 NP=   1
 IA=     1 L=2 SC=2 ISt=    0 NBk=    0 NP=    0 IndPr=    0.
 IA=     2 ShT= 0 ShC= 0 NL=   3 NS=   2.
         I=   1 JX=   8 NP=   3
         I=   2 JX=   9 NP=   1
         I=   3 JX=  10 NP=   1
 IA=     2 L=0 SC=0 ISt=    0 NBk=    0 NP=    0 IndPr=    0.
 IA=     2 ShT= 1 ShC= 1 NL=   1 NS=   1.
         I=   1 JX=   1 NP=   6
 IA=     2 L=1 SC=1 ISt=    0 NBk=    0 NP=    0 IndPr=    0.
 IA=     3 ShT= 0 ShC= 0 NL=   3 NS=   2.
         I=   1 JX=  12 NP=   3
         I=   2 JX=  13 NP=   1
         I=   3 JX=  14 NP=   1
 IA=     3 L=0 SC=0 ISt=    0 NBk=    0 NP=    0 IndPr=    0.
 IA=     3 ShT= 1 ShC= 1 NL=   1 NS=   1.
         I=   1 JX=   1 NP=   6
 IA=     3 L=1 SC=1 ISt=    0 NBk=    0 NP=    0 IndPr=    0.
 IA=     4 ShT= 0 ShC= 0 NL=   3 NS=   2.
         I=   1 JX=  16 NP=   3
         I=   2 JX=  17 NP=   1
         I=   3 JX=  18 NP=   1
 IA=     4 L=0 SC=0 ISt=    0 NBk=    0 NP=    0 IndPr=    0.
 IA=     4 ShT= 1 ShC= 1 NL=   1 NS=   1.
         I=   1 JX=   1 NP=   6
 IA=     4 L=1 SC=1 ISt=    0 NBk=    0 NP=    0 IndPr=    0.
 IA=     5 ShT= 0 ShC= 0 NL=   3 NS=   2.
         I=   1 JX=  20 NP=   3
         I=   2 JX=  21 NP=   1
         I=   3 JX=  22 NP=   1
 IA=     5 L=0 SC=0 ISt=    0 NBk=    0 NP=    0 IndPr=    0.
 IA=     5 ShT= 1 ShC= 1 NL=   1 NS=   1.
         I=   1 JX=   1 NP=   6
 IA=     5 L=1 SC=1 ISt=    0 NBk=    0 NP=    0 IndPr=    0.
 Electric field displacement of shell     1 is  0.00D+00
 Electric field displacement of shell     2 is  0.00D+00
 Electric field displacement of shell     3 is  0.00D+00
 Electric field displacement of shell     4 is  0.00D+00
 Electric field displacement of shell     5 is  0.00D+00
 Electric field displacement of shell     6 is  0.00D+00
 Electric field displacement of shell     7 is  0.00D+00
 Electric field displacement of shell     8 is  0.00D+00
 Electric field displacement of shell     9 is  0.00D+00
 Electric field displacement of shell    10 is  0.00D+00
 Electric field displacement of shell    11 is  0.00D+00
 Electric field displacement of shell    12 is  0.00D+00
 Electric field displacement of shell    13 is  0.00D+00
 Electric field displacement of shell    14 is  0.00D+00
 Electric field displacement of shell    15 is  0.00D+00
 Electric field displacement of shell    16 is  0.00D+00
 Electric field displacement of shell    17 is  0.00D+00
 Electric field displacement of shell    18 is  0.00D+00
 Electric field displacement of shell    19 is  0.00D+00
 Electric field displacement of shell    20 is  0.00D+00
 Electric field displacement of shell    21 is  0.00D+00
 Electric field displacement of shell    22 is  0.00D+00
 Electric field displacement of shell    23 is  0.00D+00
 AO basis set in the form of general basis input (Overlap normalization):
      1 0
 S   6 1.00       0.000000000000
      0.4563240000D+04  0.1966650249D-02
      0.6820240000D+03  0.1523060193D-01
      0.1549730000D+03  0.7612690966D-01
      0.4445530000D+02  0.2608010331D+00
      0.1302900000D+02  0.6164620782D+00
      0.1827730000D+01  0.2210060280D+00
 SP   3 1.00       0.000000000000
      0.2096420000D+02  0.1146600807D+00  0.4024869267D-01
      0.4803310000D+01  0.9199996477D+00  0.2375939567D+00
      0.1459330000D+01 -0.3030682134D-02  0.8158538515D+00
 SP   1 1.00       0.000000000000
      0.4834560000D+00  0.1000000000D+01  0.1000000000D+01
 SP   1 1.00       0.000000000000
      0.1455850000D+00  0.1000000000D+01  0.1000000000D+01
 SP   1 1.00       0.000000000000
      0.4380000000D-01  0.1000000000D+01  0.1000000000D+01
 D   1 1.00       0.000000000000
      0.1252000000D+01  0.1000000000D+01
 D   1 1.00       0.000000000000
      0.3130000000D+00  0.1000000000D+01
 ****
      2 0
 S   3 1.00       0.000000000000
      0.3386500000D+02  0.2549381454D-01
      0.5094790000D+01  0.1903731086D+00
      0.1158790000D+01  0.8521614860D+00
 S   1 1.00       0.000000000000
      0.3258400000D+00  0.1000000000D+01
 S   1 1.00       0.000000000000
      0.1027410000D+00  0.1000000000D+01
 P   1 1.00       0.000000000000
      0.7500000000D+00  0.1000000000D+01
 ****
      3 0
 S   3 1.00       0.000000000000
      0.3386500000D+02  0.2549381454D-01
      0.5094790000D+01  0.1903731086D+00
      0.1158790000D+01  0.8521614860D+00
 S   1 1.00       0.000000000000
      0.3258400000D+00  0.1000000000D+01
 S   1 1.00       0.000000000000
      0.1027410000D+00  0.1000000000D+01
 P   1 1.00       0.000000000000
      0.7500000000D+00  0.1000000000D+01
 ****
      4 0
 S   3 1.00       0.000000000000
      0.3386500000D+02  0.2549381454D-01
      0.5094790000D+01  0.1903731086D+00
      0.1158790000D+01  0.8521614860D+00
 S   1 1.00       0.000000000000
      0.3258400000D+00  0.1000000000D+01
 S   1 1.00       0.000000000000
      0.1027410000D+00  0.1000000000D+01
 P   1 1.00       0.000000000000
      0.7500000000D+00  0.1000000000D+01
 ****
      5 0
 S   3 1.00       0.000000000000
      0.3386500000D+02  0.2549381454D-01
      0.5094790000D+01  0.1903731086D+00
      0.1158790000D+01  0.8521614860D+00
 S   1 1.00       0.000000000000
      0.3258400000D+00  0.1000000000D+01
 S   1 1.00       0.000000000000
      0.1027410000D+00  0.1000000000D+01
 P   1 1.00       0.000000000000
      0.7500000000D+00  0.1000000000D+01
 ****

 LdAtmC:  AtmChg=     6.000000     1.000000     1.000000     1.000000     1.000000
 AtZEff=     -3.6000000     -1.0000000     -1.0000000     -1.0000000     -1.0000000
 NEqShl: 
              1            2            3            4            5
     1            1            1            1            1            1
     2            2            2            2            2            2
     3            3            3            3            3            3
     4            4            4            4            4            4
     5            5            5            5            5            5
     6            6            6            6            6            6
     7            7            7            7            7            7
     8            8           20           16           12            8
     9            9           21           17           13            9
    10           10           22           18           14           10
    11           11           23           19           15           11
    12           12           16           20            8           16
    13           13           17           21            9           17
    14           14           18           22           10           18
    15           15           19           23           11           19
    16           16           12            8           20           20
    17           17           13            9           21           21
    18           18           14           10           22           22
    19           19           15           11           23           23
    20           20            8           12           16           12
    21           21            9           13           17           13
    22           22           10           14           18           14
    23           23           11           15           19           15
              6            7            8            9           10
     1            1            1            1            1            1
     2            2            2            2            2            2
     3            3            3            3            3            3
     4            4            4            4            4            4
     5            5            5            5            5            5
     6            6            6            6            6            6
     7            7            7            7            7            7
     8            8           20           12           12           16
     9            9           21           13           13           17
    10           10           22           14           14           18
    11           11           23           15           15           19
    12           20            8           20           16            8
    13           21            9           21           17            9
    14           22           10           22           18           10
    15           23           11           23           19           11
    16           12           16           16            8           12
    17           13           17           17            9           13
    18           14           18           18           10           14
    19           15           19           19           11           15
    20           16           12            8           20           20
    21           17           13            9           21           21
    22           18           14           10           22           22
    23           19           15           11           23           23
             11           12           13           14           15
     1            1            1            1            1            1
     2            2            2            2            2            2
     3            3            3            3            3            3
     4            4            4            4            4            4
     5            5            5            5            5            5
     6            6            6            6            6            6
     7            7            7            7            7            7
     8           20           16           16           12           12
     9           21           17           17           13           13
    10           22           18           18           14           14
    11           23           19           19           15           15
    12           12           12            8           20           16
    13           13           13            9           21           17
    14           14           14           10           22           18
    15           15           15           11           23           19
    16            8           20           20            8           20
    17            9           21           21            9           21
    18           10           22           22           10           22
    19           11           23           23           11           23
    20           16            8           12           16            8
    21           17            9           13           17            9
    22           18           10           14           18           10
    23           19           11           15           19           11
             16           17           18           19           20
     1            1            1            1            1            1
     2            2            2            2            2            2
     3            3            3            3            3            3
     4            4            4            4            4            4
     5            5            5            5            5            5
     6            6            6            6            6            6
     7            7            7            7            7            7
     8           20           20           16           20            8
     9           21           21           17           21            9
    10           22           22           18           22           10
    11           23           23           19           23           11
    12            8           16           20           12           16
    13            9           17           21           13           17
    14           10           18           22           14           18
    15           11           19           23           15           19
    16           12            8           12           16           12
    17           13            9           13           17           13
    18           14           10           14           18           14
    19           15           11           15           19           15
    20           16           12            8            8           20
    21           17           13            9            9           21
    22           18           14           10           10           22
    23           19           15           11           11           23
             21           22           23           24
     1            1            1            1            1
     2            2            2            2            2
     3            3            3            3            3
     4            4            4            4            4
     5            5            5            5            5
     6            6            6            6            6
     7            7            7            7            7
     8            8           16           12            8
     9            9           17           13            9
    10           10           18           14           10
    11           11           19           15           11
    12           20           12            8           12
    13           21           13            9           13
    14           22           14           10           14
    15           23           15           11           15
    16           16            8           16           20
    17           17            9           17           21
    18           18           10           18           22
    19           19           11           19           23
    20           12           20           20           16
    21           13           21           21           17
    22           14           22           22           18
    23           15           23           23           19
 NEqBas: 
              1            2            3            4
     1            1            1            1            1
     2            2            2            2            2
     3            3            3           -3           -3
     4            4           -4            4           -4
     5            5           -5           -5            5
     6            6            6            6            6
     7            7            7           -7           -7
     8            8           -8            8           -8
     9            9           -9           -9            9
    10           10           10           10           10
    11           11           11          -11          -11
    12           12          -12           12          -12
    13           13          -13          -13           13
    14           14           14           14           14
    15           15           15          -15          -15
    16           16          -16           16          -16
    17           17          -17          -17           17
    18           18           18           18           18
    19           19           19           19           19
    20           20           20           20           20
    21           21          -21          -21           21
    22           22          -22           22          -22
    23           23           23          -23          -23
    24           24           24           24           24
    25           25           25           25           25
    26           26           26           26           26
    27           27          -27          -27           27
    28           28          -28           28          -28
    29           29           29          -29          -29
    30           30           48           42           36
    31           31           49           43           37
    32           32           50           44           38
    33           33           51          -45          -39
    34           34          -52           46          -40
    35           35          -53          -47           41
    36           36           42           48           30
    37           37           43           49           31
    38           38           44           50           32
    39           39           45          -51          -33
    40           40          -46           52          -34
    41           41          -47          -53           35
    42           42           36           30           48
    43           43           37           31           49
    44           44           38           32           50
    45           45           39          -33          -51
    46           46          -40           34          -52
    47           47          -41          -35           53
    48           48           30           36           42
    49           49           31           37           43
    50           50           32           38           44
    51           51           33          -39          -45
    52           52          -34           40          -46
    53           53          -35          -41           47
 There are    17 symmetry adapted cartesian basis functions of A   symmetry.
   1         1   1   1   1
   2         2   2   2   2
   3         6   6   6   6
   4        10  10  10  10
   5        14  14  14  14
   6        18  18  18  18
   7        19  19  19  19
   8        20  20  20  20
   9        24  24  24  24
  10        25  25  25  25
  11        26  26  26  26
  12        30  36  42  48
  13        31  37  43  49
  14        32  38  44  50
  15        33 -39 -45  51
  16        34 -40  46 -52
  17        35  41 -47 -53
 There are    12 symmetry adapted cartesian basis functions of B1  symmetry.
  18         5   5   5   5
  19         9   9   9   9
  20        13  13  13  13
  21        17  17  17  17
  22        21  21  21  21
  23        27  27  27  27
  24        30  36 -42 -48
  25        31  37 -43 -49
  26        32  38 -44 -50
  27        33 -39  45 -51
  28        34 -40 -46  52
  29        35  41  47  53
 There are    12 symmetry adapted cartesian basis functions of B2  symmetry.
  30         4   4   4   4
  31         8   8   8   8
  32        12  12  12  12
  33        16  16  16  16
  34        22  22  22  22
  35        28  28  28  28
  36        30 -36  42 -48
  37        31 -37  43 -49
  38        32 -38  44 -50
  39        33  39 -45 -51
  40        34  40  46  52
  41        35 -41 -47  53
 There are    12 symmetry adapted cartesian basis functions of B3  symmetry.
  42         3   3   3   3
  43         7   7   7   7
  44        11  11  11  11
  45        15  15  15  15
  46        23  23  23  23
  47        29  29  29  29
  48        30 -36 -42  48
  49        31 -37 -43  49
  50        32 -38 -44  50
  51        33  39  45  51
  52        34  40 -46 -52
  53        35 -41  47 -53
 Order= 1 4 3 2
 Reordered character table:
              1            2            3            4            5
     1            1            1            1            1            1
     2            4            1           -1           -1            1
     3            3            1           -1            1           -1
     4            2            1            1           -1           -1
 NEqShl: 
              1            2            3            4            5
     1            1            1            1            1            1
     2            2            2            2            2            2
     3            3            3            3            3            3
     4            4            4            4            4            4
     5            5            5            5            5            5
     6            6            6            6            6            6
     7            7            7            7            7            7
     8            8           20           16           12            8
     9            9           21           17           13            9
    10           10           22           18           14           10
    11           11           23           19           15           11
    12           12           16           20            8           16
    13           13           17           21            9           17
    14           14           18           22           10           18
    15           15           19           23           11           19
    16           16           12            8           20           20
    17           17           13            9           21           21
    18           18           14           10           22           22
    19           19           15           11           23           23
    20           20            8           12           16           12
    21           21            9           13           17           13
    22           22           10           14           18           14
    23           23           11           15           19           15
              6            7            8            9           10
     1            1            1            1            1            1
     2            2            2            2            2            2
     3            3            3            3            3            3
     4            4            4            4            4            4
     5            5            5            5            5            5
     6            6            6            6            6            6
     7            7            7            7            7            7
     8            8           20           12           12           16
     9            9           21           13           13           17
    10           10           22           14           14           18
    11           11           23           15           15           19
    12           20            8           20           16            8
    13           21            9           21           17            9
    14           22           10           22           18           10
    15           23           11           23           19           11
    16           12           16           16            8           12
    17           13           17           17            9           13
    18           14           18           18           10           14
    19           15           19           19           11           15
    20           16           12            8           20           20
    21           17           13            9           21           21
    22           18           14           10           22           22
    23           19           15           11           23           23
             11           12           13           14           15
     1            1            1            1            1            1
     2            2            2            2            2            2
     3            3            3            3            3            3
     4            4            4            4            4            4
     5            5            5            5            5            5
     6            6            6            6            6            6
     7            7            7            7            7            7
     8           20           16           16           12           12
     9           21           17           17           13           13
    10           22           18           18           14           14
    11           23           19           19           15           15
    12           12           12            8           20           16
    13           13           13            9           21           17
    14           14           14           10           22           18
    15           15           15           11           23           19
    16            8           20           20            8           20
    17            9           21           21            9           21
    18           10           22           22           10           22
    19           11           23           23           11           23
    20           16            8           12           16            8
    21           17            9           13           17            9
    22           18           10           14           18           10
    23           19           11           15           19           11
             16           17           18           19           20
     1            1            1            1            1            1
     2            2            2            2            2            2
     3            3            3            3            3            3
     4            4            4            4            4            4
     5            5            5            5            5            5
     6            6            6            6            6            6
     7            7            7            7            7            7
     8           20           20           16           20            8
     9           21           21           17           21            9
    10           22           22           18           22           10
    11           23           23           19           23           11
    12            8           16           20           12           16
    13            9           17           21           13           17
    14           10           18           22           14           18
    15           11           19           23           15           19
    16           12            8           12           16           12
    17           13            9           13           17           13
    18           14           10           14           18           14
    19           15           11           15           19           15
    20           16           12            8            8           20
    21           17           13            9            9           21
    22           18           14           10           10           22
    23           19           15           11           11           23
             21           22           23           24
     1            1            1            1            1
     2            2            2            2            2
     3            3            3            3            3
     4            4            4            4            4
     5            5            5            5            5
     6            6            6            6            6
     7            7            7            7            7
     8            8           16           12            8
     9            9           17           13            9
    10           10           18           14           10
    11           11           19           15           11
    12           20           12            8           12
    13           21           13            9           13
    14           22           14           10           14
    15           23           15           11           15
    16           16            8           16           20
    17           17            9           17           21
    18           18           10           18           22
    19           19           11           19           23
    20           12           20           20           16
    21           13           21           21           17
    22           14           22           22           18
    23           15           23           23           19
 NEqBas: 
              1            2            3            4
     1            1            1            1            1
     2            2            2            2            2
     3            3            3           -3           -3
     4            4           -4            4           -4
     5            5           -5           -5            5
     6            6            6            6            6
     7            7            7           -7           -7
     8            8           -8            8           -8
     9            9           -9           -9            9
    10           10           10           10           10
    11           11           11          -11          -11
    12           12          -12           12          -12
    13           13          -13          -13           13
    14           14           14           14           14
    15           15           15          -15          -15
    16           16          -16           16          -16
    17           17          -17          -17           17
    18           18           18           18           18
    19           19           19           19           19
    20           20           20           20           20
    21           21          -21          -21           21
    22           22          -22           22          -22
    23           23           23          -23          -23
    24           24           24           24           24
    25           25           25           25           25
    26           26           26           26           26
    27           27          -27          -27           27
    28           28          -28           28          -28
    29           29           29          -29          -29
    30           30           48           42           36
    31           31           49           43           37
    32           32           50           44           38
    33           33           51          -45          -39
    34           34          -52           46          -40
    35           35          -53          -47           41
    36           36           42           48           30
    37           37           43           49           31
    38           38           44           50           32
    39           39           45          -51          -33
    40           40          -46           52          -34
    41           41          -47          -53           35
    42           42           36           30           48
    43           43           37           31           49
    44           44           38           32           50
    45           45           39          -33          -51
    46           46          -40           34          -52
    47           47          -41          -35           53
    48           48           30           36           42
    49           49           31           37           43
    50           50           32           38           44
    51           51           33          -39          -45
    52           52          -34           40          -46
    53           53          -35          -41           47
 There are    17 symmetry adapted basis functions of A   symmetry.
   1         1   1   1   1
   2         2   2   2   2
   3         6   6   6   6
   4        10  10  10  10
   5        14  14  14  14
   6        18  18  18  18
   7        19  19  19  19
   8        20  20  20  20
   9        24  24  24  24
  10        25  25  25  25
  11        26  26  26  26
  12        30  36  42  48
  13        31  37  43  49
  14        32  38  44  50
  15        33 -39 -45  51
  16        34 -40  46 -52
  17        35  41 -47 -53
 There are    12 symmetry adapted basis functions of B1  symmetry.
  18         5   5   5   5
  19         9   9   9   9
  20        13  13  13  13
  21        17  17  17  17
  22        21  21  21  21
  23        27  27  27  27
  24        30  36 -42 -48
  25        31  37 -43 -49
  26        32  38 -44 -50
  27        33 -39  45 -51
  28        34 -40 -46  52
  29        35  41  47  53
 There are    12 symmetry adapted basis functions of B2  symmetry.
  30         4   4   4   4
  31         8   8   8   8
  32        12  12  12  12
  33        16  16  16  16
  34        22  22  22  22
  35        28  28  28  28
  36        30 -36  42 -48
  37        31 -37  43 -49
  38        32 -38  44 -50
  39        33  39 -45 -51
  40        34  40  46  52
  41        35 -41 -47  53
 There are    12 symmetry adapted basis functions of B3  symmetry.
  42         3   3   3   3
  43         7   7   7   7
  44        11  11  11  11
  45        15  15  15  15
  46        23  23  23  23
  47        29  29  29  29
  48        30 -36 -42  48
  49        31 -37 -43  49
  50        32 -38 -44  50
  51        33  39  45  51
  52        34  40 -46 -52
  53        35 -41  47 -53
 Order= 1 4 3 2
 Reordered character table:
              1            2            3            4            5
     1            1            1            1            1            1
     2            4            1           -1           -1            1
     3            3            1           -1            1           -1
     4            2            1            1           -1           -1
    53 basis functions,    74 primitive gaussians,    53 cartesian basis functions
     5 alpha electrons        5 beta electrons
       nuclear repulsion energy        13.4978430192 Hartrees.
 IS=     1 IAt=     1 ISR=     1 T=0 IP=      1 IndIP=      1 IndIPD=      0 C=  7.782018D-01  0.000000D+00                             NZ=T
 IS=     1 IAt=     1 ISR=     1 T=0 IP=      2 IndIP=      2 IndIPD=      1 C=  1.448695D+00  0.000000D+00                             NZ=T
 IS=     1 IAt=     1 ISR=     1 T=0 IP=      3 IndIP=      3 IndIPD=      2 C=  2.383089D+00  0.000000D+00                             NZ=T
 IS=     1 IAt=     1 ISR=     1 T=0 IP=      4 IndIP=      4 IndIPD=      3 C=  3.200089D+00  0.000000D+00                             NZ=T
 IS=     1 IAt=     1 ISR=     1 T=0 IP=      5 IndIP=      5 IndIPD=      4 C=  3.013004D+00  0.000000D+00                             NZ=T
 IS=     1 IAt=     1 ISR=     1 T=0 IP=      6 IndIP=      6 IndIPD=      5 C=  2.475986D-01  0.000000D+00                             NZ=T
 IS=     2 IAt=     1 ISR=     2 T=1 IP=      1 IndIP=      7 IndIPD=      0 C=  8.006285D-01  2.573592D+00                             NZ=T
 IS=     2 IAt=     1 ISR=     2 T=1 IP=      2 IndIP=      8 IndIPD=      1 C=  2.127420D+00  2.408248D+00                             NZ=T
 IS=     2 IAt=     1 ISR=     2 T=1 IP=      3 IndIP=      9 IndIPD=      2 C= -2.867911D-03  1.865281D+00                             NZ=T
 IS=     3 IAt=     1 ISR=     3 T=1 IP=      1 IndIP=     10 IndIPD=      0 C=  4.132166D-01  5.746273D-01                             NZ=T
 IS=     4 IAt=     1 ISR=     4 T=1 IP=      1 IndIP=     11 IndIPD=      0 C=  1.679761D-01  1.281846D-01                             NZ=T
 IS=     5 IAt=     1 ISR=     5 T=1 IP=      1 IndIP=     12 IndIPD=      0 C=  6.823633D-02  2.856161D-02                             NZ=T
 IS=     6 IAt=     1 ISR=     6 T=2 IP=      1 IndIP=     13 IndIPD=      1 C=  0.000000D+00  0.000000D+00  2.439029D+00  0.000000D+00 NZ=T
 IS=     7 IAt=     1 ISR=     7 T=2 IP=      1 IndIP=     14 IndIPD=      2 C=  0.000000D+00  0.000000D+00  2.155818D-01  0.000000D+00 NZ=T
 IS=     8 IAt=     2 ISR=     1 T=0 IP=      1 IndIP=     15 IndIPD=      0 C=  2.550693D-01  0.000000D+00                             NZ=T
 IS=     8 IAt=     2 ISR=     1 T=0 IP=      2 IndIP=     16 IndIPD=      1 C=  4.601087D-01  0.000000D+00                             NZ=T
 IS=     8 IAt=     2 ISR=     1 T=0 IP=      3 IndIP=     17 IndIPD=      2 C=  6.783214D-01  0.000000D+00                             NZ=T
 IS=     9 IAt=     2 ISR=     2 T=0 IP=      1 IndIP=     18 IndIPD=      0 C=  3.073714D-01  0.000000D+00                             NZ=T
 IS=    10 IAt=     2 ISR=     3 T=0 IP=      1 IndIP=     19 IndIPD=      0 C=  1.293356D-01  0.000000D+00                             NZ=T
 IS=    11 IAt=     2 ISR=     4 T=1 IP=      1 IndIP=     20 IndIPD=      0 C=  0.000000D+00  9.948708D-01                             NZ=T
 IS=    12 IAt=     3 ISR=     1 T=0 IP=      1 IndIP=     21 IndIPD=      0 C=  2.550693D-01  0.000000D+00                             NZ=T
 IS=    12 IAt=     3 ISR=     1 T=0 IP=      2 IndIP=     22 IndIPD=      1 C=  4.601087D-01  0.000000D+00                             NZ=T
 IS=    12 IAt=     3 ISR=     1 T=0 IP=      3 IndIP=     23 IndIPD=      2 C=  6.783214D-01  0.000000D+00                             NZ=T
 IS=    13 IAt=     3 ISR=     2 T=0 IP=      1 IndIP=     24 IndIPD=      0 C=  3.073714D-01  0.000000D+00                             NZ=T
 IS=    14 IAt=     3 ISR=     3 T=0 IP=      1 IndIP=     25 IndIPD=      0 C=  1.293356D-01  0.000000D+00                             NZ=T
 IS=    15 IAt=     3 ISR=     4 T=1 IP=      1 IndIP=     26 IndIPD=      0 C=  0.000000D+00  9.948708D-01                             NZ=T
 IS=    16 IAt=     4 ISR=     1 T=0 IP=      1 IndIP=     27 IndIPD=      0 C=  2.550693D-01  0.000000D+00                             NZ=T
 IS=    16 IAt=     4 ISR=     1 T=0 IP=      2 IndIP=     28 IndIPD=      1 C=  4.601087D-01  0.000000D+00                             NZ=T
 IS=    16 IAt=     4 ISR=     1 T=0 IP=      3 IndIP=     29 IndIPD=      2 C=  6.783214D-01  0.000000D+00                             NZ=T
 IS=    17 IAt=     4 ISR=     2 T=0 IP=      1 IndIP=     30 IndIPD=      0 C=  3.073714D-01  0.000000D+00                             NZ=T
 IS=    18 IAt=     4 ISR=     3 T=0 IP=      1 IndIP=     31 IndIPD=      0 C=  1.293356D-01  0.000000D+00                             NZ=T
 IS=    19 IAt=     4 ISR=     4 T=1 IP=      1 IndIP=     32 IndIPD=      0 C=  0.000000D+00  9.948708D-01                             NZ=T
 IS=    20 IAt=     5 ISR=     1 T=0 IP=      1 IndIP=     33 IndIPD=      0 C=  2.550693D-01  0.000000D+00                             NZ=T
 IS=    20 IAt=     5 ISR=     1 T=0 IP=      2 IndIP=     34 IndIPD=      1 C=  4.601087D-01  0.000000D+00                             NZ=T
 IS=    20 IAt=     5 ISR=     1 T=0 IP=      3 IndIP=     35 IndIPD=      2 C=  6.783214D-01  0.000000D+00                             NZ=T
 IS=    21 IAt=     5 ISR=     2 T=0 IP=      1 IndIP=     36 IndIPD=      0 C=  3.073714D-01  0.000000D+00                             NZ=T
 IS=    22 IAt=     5 ISR=     3 T=0 IP=      1 IndIP=     37 IndIPD=      0 C=  1.293356D-01  0.000000D+00                             NZ=T
 IS=    23 IAt=     5 ISR=     4 T=1 IP=      1 IndIP=     38 IndIPD=      0 C=  0.000000D+00  9.948708D-01                             NZ=T
 IExCor=    0 DFT=F Ex=HF Corr=None ExCW=0 ScaHFX=  1.000000
 ScaDFX=  1.000000  1.000000  1.000000  1.000000 ScalE2=  1.000000  1.000000
 IRadAn=      0 IRanWt=     -1 IRanGd=            0 ICorTp=0 IEmpDi=  4
 NAtoms=    5 NActive=    5 NUniq=    2 SFac= 4.00D+00 NAtFMM=   60 NAOKFM=F Big=F
 Integral buffers will be    131072 words long.
 Raffenetti 1 integral format.
 Two-electron integral symmetry is turned on.
 Pair potential:
 Leave Link  301 at Fri May 29 15:52:03 2015, MaxMem=    33554432 cpu:               0.0 elap:               0.1
 (Enter /home/gauss/gdvi02/gdv/l302.exe)
 NPDir=0 NMtPBC=     1 NCelOv=     1 NCel=       1 NClECP=     1 NCelD=      1
         NCelK=      1 NCelE2=     1 NClLst=     1 CellRange=     0.0.
 One-electron integrals computed using PRISM.
 One-electron integral symmetry used in STVInt
 Entering OneElI...
 OneElI was handed    33550609 working-precision words.
 Calculate overlap and kinetic energy integrals
    NBasis =  53  MinDer = 0  MaxDer = 0
 Requested accuracy = 0.1000D-12
 ShPair: Thresh= 1.00D-13 NBox=     0 BxSize= 0.00D+00 RnKept= 3.35D+00
         NSMCal=                  276 NSMKep=                 276
 Symmetry will be used
 Overlap and Kinetic Integrals          
 Derivative Range = 0 to 2  Logicals = T F F F F F
 The Identity operator will be used
 PrsmSu:  NPrtUS=   1 ThrOK=F IAlg=1 NPAlg=1 LenDen=           0.
 Prism:   IPart=     0 DynPar=F LinDyn=F Incr=           2.
 PRISM was handed    33521687 working-precision words and   276 shell-pairs
 PRISM will use Minimum- Mop paths
 [0] accuracy = 0.10D-12   Chebyshev Delta = 0.12D-02   Critical T = 28.20   # of points =  11979


           Zone         Bra Derivative Range     Ket Derivative Range
           ==========================================================
             1                 0 to 2                   0 to 0
           ==========================================================

                             -------------------
                             The (dd|ss) Classes
 Not enough memory for any path:
 MxKBra=    1 MxKKet=    1 Memory=    33492410.
                             -------------------

       Available PRISM Paths: 29

    No. of target [m0|n0]   =    84
    No. of locations needed =    86

       T1    T2    T3    T4    T5    T6    T7    T8    T9   T10   T11   T12
      554 99999 99999 99999     0     0     0     0     0     0     0     0
   C1   C2   C3   C4   C5   C6   C7   C8   C9  C10  C11  C12  C13  C14  C15  C16
9999999999999999999999999999999999999999    0    0    0    0  360  360  360  360
    0    0    0    0    0    0    0    0    0    0    0    0  360  360  360  360

                   VR1     cost =    1042
                   Bra-TRn cost =    2616
                   Ket-TRn cost =       0

                   Space needed for drivers          =   32836
                   Space needed for driver formation =   51522

                   KBra   KKet   Path     Mops    Wds/S4    MaxCom 

                   C37 =       0
                   C38 =       0
 Prsmar:  LTot= 6 LBK=  4  0 KBK=     1     1 Path=29 Kost=        3774 NPerS4=         714 nW0=         373 nW1=         151 nW2=         373
          nW0X=           0 NPS4B=         180 jNext=       32899 NLeft=    33488785 jEnd=      196406 LenV=    33521687 MaxCom=         229

                             -------------------
                             The (dP|ss) Classes
 Not enough memory for any path:
 MxKBra=    3 MxKKet=    1 Memory=    33505002.
                             -------------------

       Available PRISM Paths: 29

    No. of target [m0|n0]   =    56
    No. of locations needed =    58

       T1    T2    T3    T4    T5    T6    T7    T8    T9   T10   T11   T12
      342 99999 99999 99999     0     0     0     0     0     0     0     0
   C1   C2   C3   C4   C5   C6   C7   C8   C9  C10  C11  C12  C13  C14  C15  C16
9999999999999999999999999999999999999999    0    0    0    0  300  240  240  300
    0    0    0    0    0    0    0    0    0    0    0    0  240  240  240  240

                   VR1     cost =     638
                   Bra-TRn cost =    1252
                   Ket-TRn cost =       0

                   Space needed for drivers          =   19140
                   Space needed for driver formation =   31376

                   KBra   KKet   Path     Mops    Wds/S4    MaxCom 

                   C37 =       0
                   C38 =       0
 Prsmar:  LTot= 5 LBK=  3  0 KBK=     1     1 Path=29 Kost=        1998 NPerS4=         552 nW0=         247 nW1=         128 nW2=         247
          nW0X=           0 NPS4B=         160 jNext=       19230 NLeft=    33502454 jEnd=      182623 LenV=    33521687 MaxCom=         296
 Prsmar:  LTot= 5 LBK=  3  0 KBK=     3     1 Path=29 Kost=        3746 NPerS4=         606 nW0=         247 nW1=         128 nW2=         247
          nW0X=           0 NPS4B=         212 jNext=       19226 NLeft=    33502458 jEnd=      182847 LenV=    33521687 MaxCom=         270

                             -------------------
                             The (dp|ss) Classes
 Not enough memory for any path:
 MxKBra=    1 MxKKet=    1 Memory=    33507320.
                             -------------------

       Available PRISM Paths: 29

    No. of target [m0|n0]   =    56
    No. of locations needed =    58

       T1    T2    T3    T4    T5    T6    T7    T8    T9   T10   T11   T12
      342 99999 99999 99999     0     0     0     0     0     0     0     0
   C1   C2   C3   C4   C5   C6   C7   C8   C9  C10  C11  C12  C13  C14  C15  C16
9999999999999999999999999999999999999999    0    0    0    0  180  180  180  180
    0    0    0    0    0    0    0    0    0    0    0    0  180  180  180  180

                   VR1     cost =     638
                   Bra-TRn cost =    1062
                   Ket-TRn cost =       0

                   Space needed for drivers          =   16454
                   Space needed for driver formation =   25855

                   KBra   KKet   Path     Mops    Wds/S4    MaxCom 

                   C37 =       0
                   C38 =       0
 Prsmar:  LTot= 5 LBK=  3  0 KBK=     1     1 Path=29 Kost=        1767 NPerS4=         440 nW0=         187 nW1=          87 nW2=         187
          nW0X=           0 NPS4B=         116 jNext=       16526 NLeft=    33505158 jEnd=      180207 LenV=    33521687 MaxCom=         372

                             -------------------
                             The (PP|ss) Classes
 Not enough memory for any path:
 MxKBra=    9 MxKKet=    1 Memory=    33510730.
                             -------------------

       Available PRISM Paths: 29

    No. of target [m0|n0]   =    35
    No. of locations needed =    36

       T1    T2    T3    T4    T5    T6    T7    T8    T9   T10   T11   T12
      189 99999 99999 99999     0     0     0     0     0     0     0     0
   C1   C2   C3   C4   C5   C6   C7   C8   C9  C10  C11  C12  C13  C14  C15  C16
9999999999999999999999999999999999999999    0    0    0    0  230  160  160  230
    0    0    0    0    0    0    0    0    0    0    0    0  160  160  160  160

                   VR1     cost =     349
                   Bra-TRn cost =     764
                   Ket-TRn cost =       0

                   Space needed for drivers          =   12669
                   Space needed for driver formation =   22667

                   KBra   KKet   Path     Mops    Wds/S4    MaxCom 

                   C37 =       0
                   C38 =       0
 Prsmar:  LTot= 4 LBK=  2  0 KBK=     1     1 Path=29 Kost=        1221 NPerS4=         449 nW0=         164 nW1=         118 nW2=         164
          nW0X=           0 NPS4B=         156 jNext=       12795 NLeft=    33508889 jEnd=      176232 LenV=    33521687 MaxCom=         364
 Prsmar:  LTot= 4 LBK=  2  0 KBK=     3     1 Path=29 Kost=        2371 NPerS4=         515 nW0=         164 nW1=         118 nW2=         164
          nW0X=           0 NPS4B=         220 jNext=       12825 NLeft=    33508859 jEnd=      176596 LenV=    33521687 MaxCom=         318
 Prsmar:  LTot= 4 LBK=  2  0 KBK=     9     1 Path=29 Kost=        5821 NPerS4=         873 nW0=         324 nW1=         118 nW2=         324
          nW0X=           0 NPS4B=         412 jNext=       12823 NLeft=    33508861 jEnd=      176075 LenV=    33521687 MaxCom=         187

                             -------------------
                             The (pP|ss) Classes
 Not enough memory for any path:
 MxKBra=    3 MxKKet=    1 Memory=    33513097.
                             -------------------

       Available PRISM Paths: 29

    No. of target [m0|n0]   =    35
    No. of locations needed =    36

       T1    T2    T3    T4    T5    T6    T7    T8    T9   T10   T11   T12
      189 99999 99999 99999     0     0     0     0     0     0     0     0
   C1   C2   C3   C4   C5   C6   C7   C8   C9  C10  C11  C12  C13  C14  C15  C16
9999999999999999999999999999999999999999    0    0    0    0  150  120  120  150
    0    0    0    0    0    0    0    0    0    0    0    0  120  120  120  120

                   VR1     cost =     349
                   Bra-TRn cost =     596
                   Ket-TRn cost =       0

                   Space needed for drivers          =    9960
                   Space needed for driver formation =   16687

                   KBra   KKet   Path     Mops    Wds/S4    MaxCom 

                   C37 =       0
                   C38 =       0
 Prsmar:  LTot= 4 LBK=  2  0 KBK=     1     1 Path=29 Kost=        1012 NPerS4=         353 nW0=         123 nW1=          77 nW2=         123
          nW0X=           0 NPS4B=         109 jNext=       10077 NLeft=    33511607 jEnd=      173870 LenV=    33521687 MaxCom=         464
 Prsmar:  LTot= 4 LBK=  2  0 KBK=     3     1 Path=29 Kost=        1998 NPerS4=         407 nW0=         123 nW1=          77 nW2=         123
          nW0X=           0 NPS4B=         161 jNext=       10075 NLeft=    33511609 jEnd=      173690 LenV=    33521687 MaxCom=         402

                             -------------------
                             The (pp|ss) Classes
 Not enough memory for any path:
 MxKBra=    1 MxKKet=    1 Memory=    33514332.
                             -------------------

       Available PRISM Paths: 29

    No. of target [m0|n0]   =    35
    No. of locations needed =    36

       T1    T2    T3    T4    T5    T6    T7    T8    T9   T10   T11   T12
      189 99999 99999 99999     0     0     0     0     0     0     0     0
   C1   C2   C3   C4   C5   C6   C7   C8   C9  C10  C11  C12  C13  C14  C15  C16
9999999999999999999999999999999999999999    0    0    0    0   90   90   90   90
    0    0    0    0    0    0    0    0    0    0    0    0   90   90   90   90

                   VR1     cost =     349
                   Bra-TRn cost =     516
                   Ket-TRn cost =       0

                   Space needed for drivers          =    8539
                   Space needed for driver formation =   13711

                   KBra   KKet   Path     Mops    Wds/S4    MaxCom 

                   C37 =       0
                   C38 =       0
 Prsmar:  LTot= 4 LBK=  2  0 KBK=     1     1 Path=29 Kost=         909 NPerS4=         289 nW0=          93 nW1=          54 nW2=          93
          nW0X=           0 NPS4B=          83 jNext=        8615 NLeft=    33513069 jEnd=      172190 LenV=    33521687 MaxCom=         566

                             -------------------
                             The (ds|ss) Classes
 Not enough memory for any path:
 MxKBra=    6 MxKKet=    1 Memory=    33516910.
                             -------------------

       Available PRISM Paths: 29

    No. of target [m0|n0]   =    35
    No. of locations needed =    36

       T1    T2    T3    T4    T5    T6    T7    T8    T9   T10   T11   T12
      189 99999 99999 99999     0     0     0     0     0     0     0     0
   C1   C2   C3   C4   C5   C6   C7   C8   C9  C10  C11  C12  C13  C14  C15  C16
9999999999999999999999999999999999999999    0    0    0    0   60   60   60   60
    0    0    0    0    0    0    0    0    0    0    0    0   60   60   60   60

                   VR1     cost =     349
                   Bra-TRn cost =     190
                   Ket-TRn cost =       0

                   Space needed for drivers          =    5815
                   Space needed for driver formation =    7983

                   KBra   KKet   Path     Mops    Wds/S4    MaxCom 

                   C37 =       0
                   C38 =       0
 Prsmar:  LTot= 4 LBK=  2  0 KBK=     1     1 Path=29 Kost=         570 NPerS4=         248 nW0=          63 nW1=          41 nW2=          63
          nW0X=           0 NPS4B=          64 jNext=        5905 NLeft=    33515779 jEnd=      169586 LenV=    33521687 MaxCom=         660
 Prsmar:  LTot= 4 LBK=  2  0 KBK=     3     1 Path=29 Kost=        1412 NPerS4=         341 nW0=         108 nW1=          41 nW2=         108
          nW0X=           0 NPS4B=         110 jNext=        5919 NLeft=    33515765 jEnd=      169600 LenV=    33521687 MaxCom=         480
 Prsmar:  LTot= 4 LBK=  2  0 KBK=     6     1 Path=29 Kost=        2675 NPerS4=         521 nW0=         216 nW1=          41 nW2=         216
          nW0X=           0 NPS4B=         179 jNext=        5895 NLeft=    33515789 jEnd=      169490 LenV=    33521687 MaxCom=         314

                             -------------------
                             The (Ps|ss) Classes
 Not enough memory for any path:
 MxKBra=   18 MxKKet=    1 Memory=    33518738.
                             -------------------

       Available PRISM Paths: 29

    No. of target [m0|n0]   =    20
    No. of locations needed =    21

       T1    T2    T3    T4    T5    T6    T7    T8    T9   T10   T11   T12
       96 99999 99999 99999     0     0     0     0     0     0     0     0
   C1   C2   C3   C4   C5   C6   C7   C8   C9  C10  C11  C12  C13  C14  C15  C16
9999999999999999999999999999999999999999    0    0    0    0   50   40   40   50
    0    0    0    0    0    0    0    0    0    0    0    0   40   40   40   40

                   VR1     cost =     174
                   Bra-TRn cost =      89
                   Ket-TRn cost =       0

                   Space needed for drivers          =    3584
                   Space needed for driver formation =    5442

                   KBra   KKet   Path     Mops    Wds/S4    MaxCom 

                   C37 =       0
                   C38 =       0
 Prsmar:  LTot= 3 LBK=  1  0 KBK=     1     1 Path=29 Kost=         293 NPerS4=         206 nW0=          41 nW1=          34 nW2=          41
          nW0X=           0 NPS4B=          60 jNext=        3764 NLeft=    33517920 jEnd=      167535 LenV=    33521687 MaxCom=         795
 Prsmar:  LTot= 3 LBK=  1  0 KBK=     3     1 Path=29 Kost=         769 NPerS4=         282 nW0=          63 nW1=          34 nW2=          63
          nW0X=           0 NPS4B=         112 jNext=        3943 NLeft=    33517741 jEnd=      167504 LenV=    33521687 MaxCom=         580
 Prsmar:  LTot= 3 LBK=  1  0 KBK=     6     1 Path=29 Kost=        1483 NPerS4=         426 nW0=         126 nW1=          34 nW2=         126
          nW0X=           0 NPS4B=         190 jNext=        3731 NLeft=    33517953 jEnd=      167316 LenV=    33521687 MaxCom=         384
 Prsmar:  LTot= 3 LBK=  1  0 KBK=     8     1 Path=29 Kost=        1959 NPerS4=         522 nW0=         168 nW1=          34 nW2=         168
          nW0X=           0 NPS4B=         242 jNext=        3799 NLeft=    33517885 jEnd=      167186 LenV=    33521687 MaxCom=         313
 Prsmar:  LTot= 3 LBK=  1  0 KBK=    18     1 Path=29 Kost=        4339 NPerS4=        1002 nW0=         378 nW1=          34 nW2=         378
          nW0X=           0 NPS4B=         502 jNext=        3729 NLeft=    33517955 jEnd=      167056 LenV=    33521687 MaxCom=         163

                             -------------------
                             The (ps|ss) Classes
 Not enough memory for any path:
 MxKBra=    6 MxKKet=    1 Memory=    33519251.
                             -------------------

       Available PRISM Paths: 29

    No. of target [m0|n0]   =    20
    No. of locations needed =    21

       T1    T2    T3    T4    T5    T6    T7    T8    T9   T10   T11   T12
       96 99999 99999 99999     0     0     0     0     0     0     0     0
   C1   C2   C3   C4   C5   C6   C7   C8   C9  C10  C11  C12  C13  C14  C15  C16
9999999999999999999999999999999999999999    0    0    0    0   30   30   30   30
    0    0    0    0    0    0    0    0    0    0    0    0   30   30   30   30

                   VR1     cost =     174
                   Bra-TRn cost =      80
                   Ket-TRn cost =       0

                   Space needed for drivers          =    2987
                   Space needed for driver formation =    4180

                   KBra   KKet   Path     Mops    Wds/S4    MaxCom 

                   C37 =       0
                   C38 =       0
 Prsmar:  LTot= 3 LBK=  1  0 KBK=     1     1 Path=29 Kost=         273 NPerS4=         174 nW0=          31 nW1=          23 nW2=          31
          nW0X=           0 NPS4B=          46 jNext=        3109 NLeft=    33518575 jEnd=      166844 LenV=    33521687 MaxCom=         941
 Prsmar:  LTot= 3 LBK=  1  0 KBK=     3     1 Path=29 Kost=         705 NPerS4=         254 nW0=          63 nW1=          23 nW2=          63
          nW0X=           0 NPS4B=          92 jNext=        3139 NLeft=    33518545 jEnd=      166970 LenV=    33521687 MaxCom=         645
 Prsmar:  LTot= 3 LBK=  1  0 KBK=     6     1 Path=29 Kost=        1353 NPerS4=         389 nW0=         126 nW1=          23 nW2=         126
          nW0X=           0 NPS4B=         161 jNext=        3090 NLeft=    33518594 jEnd=      166860 LenV=    33521687 MaxCom=         421

                             -------------------
                             The (ss|ss) Classes
 Not enough memory for any path:
 MxKBra=   36 MxKKet=    1 Memory=    33520688.
                             -------------------

       Available PRISM Paths: 29

    No. of target [m0|n0]   =    10
    No. of locations needed =    11

       T1    T2    T3    T4    T5    T6    T7    T8    T9   T10   T11   T12
       39 99999 99999 99999     0     0     0     0     0     0     0     0
   C1   C2   C3   C4   C5   C6   C7   C8   C9  C10  C11  C12  C13  C14  C15  C16
9999999999999999999999999999999999999999    0    0    0    0   10   10   10   10
    0    0    0    0    0    0    0    0    0    0    0    0   10   10   10   10

                   VR1     cost =      67
                   Bra-TRn cost =       9
                   Ket-TRn cost =       0

                   Space needed for drivers          =    1225
                   Space needed for driver formation =    1751

                   KBra   KKet   Path     Mops    Wds/S4    MaxCom 

                   C37 =       0
                   C38 =       0
 Prsmar:  LTot= 2 LBK=  0  0 KBK=     1     1 Path=29 Kost=          86 NPerS4=         126 nW0=          11 nW1=          11 nW2=          11
          nW0X=           0 NPS4B=          34 jNext=        1357 NLeft=    33520327 jEnd=      165158 LenV=    33521687 MaxCom=        1300
 Prsmar:  LTot= 2 LBK=  0  0 KBK=     3     1 Path=29 Kost=         262 NPerS4=         196 nW0=          33 nW1=          11 nW2=          33
          nW0X=           0 NPS4B=          80 jNext=        1475 NLeft=    33520209 jEnd=      165136 LenV=    33521687 MaxCom=         835
 Prsmar:  LTot= 2 LBK=  0  0 KBK=     9     1 Path=29 Kost=         790 NPerS4=         406 nW0=          99 nW1=          11 nW2=          99
          nW0X=           0 NPS4B=         218 jNext=        1352 NLeft=    33520332 jEnd=      164971 LenV=    33521687 MaxCom=         403
 Prsmar:  LTot= 2 LBK=  0  0 KBK=     8     1 Path=29 Kost=         702 NPerS4=         371 nW0=          88 nW1=          11 nW2=          88
          nW0X=           0 NPS4B=         195 jNext=        1376 NLeft=    33520308 jEnd=      164988 LenV=    33521687 MaxCom=         441
 Prsmar:  LTot= 2 LBK=  0  0 KBK=     6     1 Path=29 Kost=         526 NPerS4=         301 nW0=          66 nW1=          11 nW2=          66
          nW0X=           0 NPS4B=         149 jNext=        1377 NLeft=    33520307 jEnd=      165122 LenV=    33521687 MaxCom=         544
 Prsmar:  LTot= 2 LBK=  0  0 KBK=    14     1 Path=29 Kost=        1230 NPerS4=         581 nW0=         154 nW1=          11 nW2=         154
          nW0X=           0 NPS4B=         333 jNext=        1392 NLeft=    33520292 jEnd=      164654 LenV=    33521687 MaxCom=         281
 Prsmar:  LTot= 2 LBK=  0  0 KBK=    36     1 Path=29 Kost=        3166 NPerS4=        1351 nW0=         396 nW1=          11 nW2=         396
          nW0X=           0 NPS4B=         839 jNext=        1352 NLeft=    33520332 jEnd=      164824 LenV=    33521687 MaxCom=         121
 IPart=  0 NShTot=          76 NBatch=          28 AvBLen=         2.7
 PrSmSu:  NxtVal=              3.
 *** Overlap *** 
                1             2             3             4             5 
      1  0.100000D+01
      2  0.878444D+00  0.100000D+01
      3  0.000000D+00  0.000000D+00  0.100000D+01
      4  0.000000D+00  0.000000D+00  0.000000D+00  0.100000D+01
      5  0.000000D+00  0.000000D+00  0.000000D+00  0.000000D+00  0.100000D+01
      6  0.329179D+00  0.418800D+00  0.000000D+00  0.000000D+00  0.000000D+00
      7  0.000000D+00  0.000000D+00  0.629120D+00  0.000000D+00  0.000000D+00
      8  0.000000D+00  0.000000D+00  0.000000D+00  0.629120D+00  0.000000D+00
      9  0.000000D+00  0.000000D+00  0.000000D+00  0.000000D+00  0.629120D+00
     10  0.153761D+00  0.187145D+00  0.000000D+00  0.000000D+00  0.000000D+00
     11  0.000000D+00  0.000000D+00  0.220230D+00  0.000000D+00  0.000000D+00
     12  0.000000D+00  0.000000D+00  0.000000D+00  0.220230D+00  0.000000D+00
     13  0.000000D+00  0.000000D+00  0.000000D+00  0.000000D+00  0.220230D+00
     14  0.655625D-01  0.783157D-01  0.000000D+00  0.000000D+00  0.000000D+00
     15  0.000000D+00  0.000000D+00  0.573499D-01  0.000000D+00  0.000000D+00
     16  0.000000D+00  0.000000D+00  0.000000D+00  0.573499D-01  0.000000D+00
     17  0.000000D+00  0.000000D+00  0.000000D+00  0.000000D+00  0.573499D-01
     18  0.129153D+00  0.160840D+00  0.000000D+00  0.000000D+00  0.000000D+00
     19  0.129153D+00  0.160840D+00  0.000000D+00  0.000000D+00  0.000000D+00
     20  0.129153D+00  0.160840D+00  0.000000D+00  0.000000D+00  0.000000D+00
     21  0.000000D+00  0.000000D+00  0.000000D+00  0.000000D+00  0.000000D+00
     22  0.000000D+00  0.000000D+00  0.000000D+00  0.000000D+00  0.000000D+00
     23  0.000000D+00  0.000000D+00  0.000000D+00  0.000000D+00  0.000000D+00
     24  0.250935D-01  0.213844D-01  0.000000D+00  0.000000D+00  0.000000D+00
     25  0.250935D-01  0.213844D-01  0.000000D+00  0.000000D+00  0.000000D+00
     26  0.250935D-01  0.213844D-01  0.000000D+00  0.000000D+00  0.000000D+00
     27  0.000000D+00  0.000000D+00  0.000000D+00  0.000000D+00  0.000000D+00
     28  0.000000D+00  0.000000D+00  0.000000D+00  0.000000D+00  0.000000D+00
     29  0.000000D+00  0.000000D+00  0.000000D+00  0.000000D+00  0.000000D+00
     30  0.121262D-01  0.110239D-01  0.628456D-01  0.628456D-01  0.628456D-01
     31  0.749688D-01  0.898667D-01  0.101996D+00  0.101996D+00  0.101996D+00
     32  0.795282D-01  0.955497D-01  0.384493D-01  0.384493D-01  0.384493D-01
     33 -0.517102D-01 -0.622369D-01 -0.395317D-01 -0.134438D+00 -0.134438D+00
     34 -0.517102D-01 -0.622369D-01 -0.134438D+00 -0.395317D-01 -0.134438D+00
     35 -0.517102D-01 -0.622369D-01 -0.134438D+00 -0.134438D+00 -0.395317D-01
     36  0.121262D-01  0.110239D-01 -0.628456D-01 -0.628456D-01  0.628456D-01
     37  0.749688D-01  0.898667D-01 -0.101996D+00 -0.101996D+00  0.101996D+00
     38  0.795282D-01  0.955497D-01 -0.384493D-01 -0.384493D-01  0.384493D-01
     39  0.517102D-01  0.622369D-01 -0.395317D-01 -0.134438D+00  0.134438D+00
     40  0.517102D-01  0.622369D-01 -0.134438D+00 -0.395317D-01  0.134438D+00
     41 -0.517102D-01 -0.622369D-01  0.134438D+00  0.134438D+00 -0.395317D-01
     42  0.121262D-01  0.110239D-01 -0.628456D-01  0.628456D-01 -0.628456D-01
     43  0.749688D-01  0.898667D-01 -0.101996D+00  0.101996D+00 -0.101996D+00
     44  0.795282D-01  0.955497D-01 -0.384493D-01  0.384493D-01 -0.384493D-01
     45  0.517102D-01  0.622369D-01 -0.395317D-01  0.134438D+00 -0.134438D+00
     46 -0.517102D-01 -0.622369D-01  0.134438D+00 -0.395317D-01  0.134438D+00
     47  0.517102D-01  0.622369D-01 -0.134438D+00  0.134438D+00 -0.395317D-01
     48  0.121262D-01  0.110239D-01  0.628456D-01 -0.628456D-01 -0.628456D-01
     49  0.749688D-01  0.898667D-01  0.101996D+00 -0.101996D+00 -0.101996D+00
     50  0.795282D-01  0.955497D-01  0.384493D-01 -0.384493D-01 -0.384493D-01
     51 -0.517102D-01 -0.622369D-01 -0.395317D-01  0.134438D+00  0.134438D+00
     52  0.517102D-01  0.622369D-01  0.134438D+00 -0.395317D-01 -0.134438D+00
     53  0.517102D-01  0.622369D-01  0.134438D+00 -0.134438D+00 -0.395317D-01
                6             7             8             9            10 
      6  0.100000D+01
      7  0.000000D+00  0.100000D+01
      8  0.000000D+00  0.000000D+00  0.100000D+01
      9  0.000000D+00  0.000000D+00  0.000000D+00  0.100000D+01
     10  0.774697D+00  0.000000D+00  0.000000D+00  0.000000D+00  0.100000D+01
     11  0.000000D+00  0.653461D+00  0.000000D+00  0.000000D+00  0.000000D+00
     12  0.000000D+00  0.000000D+00  0.653461D+00  0.000000D+00  0.000000D+00
     13  0.000000D+00  0.000000D+00  0.000000D+00  0.653461D+00  0.000000D+00
     14  0.410096D+00  0.000000D+00  0.000000D+00  0.000000D+00  0.774408D+00
     15  0.000000D+00  0.226365D+00  0.000000D+00  0.000000D+00  0.000000D+00
     16  0.000000D+00  0.000000D+00  0.226365D+00  0.000000D+00  0.000000D+00
     17  0.000000D+00  0.000000D+00  0.000000D+00  0.226365D+00  0.000000D+00
     18  0.707222D+00  0.000000D+00  0.000000D+00  0.000000D+00  0.493985D+00
     19  0.707222D+00  0.000000D+00  0.000000D+00  0.000000D+00  0.493985D+00
     20  0.707222D+00  0.000000D+00  0.000000D+00  0.000000D+00  0.493985D+00
     21  0.000000D+00  0.000000D+00  0.000000D+00  0.000000D+00  0.000000D+00
     22  0.000000D+00  0.000000D+00  0.000000D+00  0.000000D+00  0.000000D+00
     23  0.000000D+00  0.000000D+00  0.000000D+00  0.000000D+00  0.000000D+00
     24  0.438107D+00  0.000000D+00  0.000000D+00  0.000000D+00  0.707954D+00
     25  0.438107D+00  0.000000D+00  0.000000D+00  0.000000D+00  0.707954D+00
     26  0.438107D+00  0.000000D+00  0.000000D+00  0.000000D+00  0.707954D+00
     27  0.000000D+00  0.000000D+00  0.000000D+00  0.000000D+00  0.000000D+00
     28  0.000000D+00  0.000000D+00  0.000000D+00  0.000000D+00  0.000000D+00
     29  0.000000D+00  0.000000D+00  0.000000D+00  0.000000D+00  0.000000D+00
     30  0.189720D+00  0.224839D+00  0.224839D+00  0.224839D+00  0.267721D+00
     31  0.428599D+00  0.284058D+00  0.284058D+00  0.284058D+00  0.581854D+00
     32  0.464370D+00  0.133975D+00  0.133975D+00  0.133975D+00  0.758917D+00
     33 -0.225323D+00  0.482351D-01 -0.225529D+00 -0.225529D+00 -0.126550D+00
     34 -0.225323D+00 -0.225529D+00  0.482351D-01 -0.225529D+00 -0.126550D+00
     35 -0.225323D+00 -0.225529D+00 -0.225529D+00  0.482351D-01 -0.126550D+00
     36  0.189720D+00 -0.224839D+00 -0.224839D+00  0.224839D+00  0.267721D+00
     37  0.428599D+00 -0.284058D+00 -0.284058D+00  0.284058D+00  0.581854D+00
     38  0.464370D+00 -0.133975D+00 -0.133975D+00  0.133975D+00  0.758917D+00
     39  0.225323D+00  0.482351D-01 -0.225529D+00  0.225529D+00  0.126550D+00
     40  0.225323D+00 -0.225529D+00  0.482351D-01  0.225529D+00  0.126550D+00
     41 -0.225323D+00  0.225529D+00  0.225529D+00  0.482351D-01 -0.126550D+00
     42  0.189720D+00 -0.224839D+00  0.224839D+00 -0.224839D+00  0.267721D+00
     43  0.428599D+00 -0.284058D+00  0.284058D+00 -0.284058D+00  0.581854D+00
     44  0.464370D+00 -0.133975D+00  0.133975D+00 -0.133975D+00  0.758917D+00
     45  0.225323D+00  0.482351D-01  0.225529D+00 -0.225529D+00  0.126550D+00
     46 -0.225323D+00  0.225529D+00  0.482351D-01  0.225529D+00 -0.126550D+00
     47  0.225323D+00 -0.225529D+00  0.225529D+00  0.482351D-01  0.126550D+00
     48  0.189720D+00  0.224839D+00 -0.224839D+00 -0.224839D+00  0.267721D+00
     49  0.428599D+00  0.284058D+00 -0.284058D+00 -0.284058D+00  0.581854D+00
     50  0.464370D+00  0.133975D+00 -0.133975D+00 -0.133975D+00  0.758917D+00
     51 -0.225323D+00  0.482351D-01  0.225529D+00  0.225529D+00 -0.126550D+00
     52  0.225323D+00  0.225529D+00  0.482351D-01 -0.225529D+00  0.126550D+00
     53  0.225323D+00  0.225529D+00 -0.225529D+00  0.482351D-01  0.126550D+00
               11            12            13            14            15 
     11  0.100000D+01
     12  0.000000D+00  0.100000D+01
     13  0.000000D+00  0.000000D+00  0.100000D+01
     14  0.000000D+00  0.000000D+00  0.000000D+00  0.100000D+01
     15  0.653055D+00  0.000000D+00  0.000000D+00  0.000000D+00  0.100000D+01
     16  0.000000D+00  0.653055D+00  0.000000D+00  0.000000D+00  0.000000D+00
     17  0.000000D+00  0.000000D+00  0.653055D+00  0.000000D+00  0.000000D+00
     18  0.000000D+00  0.000000D+00  0.000000D+00  0.242428D+00  0.000000D+00
     19  0.000000D+00  0.000000D+00  0.000000D+00  0.242428D+00  0.000000D+00
     20  0.000000D+00  0.000000D+00  0.000000D+00  0.242428D+00  0.000000D+00
     21  0.000000D+00  0.000000D+00  0.000000D+00  0.000000D+00  0.000000D+00
     22  0.000000D+00  0.000000D+00  0.000000D+00  0.000000D+00  0.000000D+00
     23  0.000000D+00  0.000000D+00  0.000000D+00  0.000000D+00  0.000000D+00
     24  0.000000D+00  0.000000D+00  0.000000D+00  0.538593D+00  0.000000D+00
     25  0.000000D+00  0.000000D+00  0.000000D+00  0.538593D+00  0.000000D+00
     26  0.000000D+00  0.000000D+00  0.000000D+00  0.538593D+00  0.000000D+00
     27  0.000000D+00  0.000000D+00  0.000000D+00  0.000000D+00  0.000000D+00
     28  0.000000D+00  0.000000D+00  0.000000D+00  0.000000D+00  0.000000D+00
     29  0.000000D+00  0.000000D+00  0.000000D+00  0.000000D+00  0.000000D+00
     30  0.216406D+00  0.216406D+00  0.216406D+00  0.176576D+00  0.844815D-01
     31  0.363283D+00  0.363283D+00  0.363283D+00  0.441824D+00  0.192971D+00
     32  0.283632D+00  0.283632D+00  0.283632D+00  0.769942D+00  0.267461D+00
     33  0.184459D+00 -0.957319D-01 -0.957319D-01 -0.293363D-01  0.104685D+00
     34 -0.957319D-01  0.184459D+00 -0.957319D-01 -0.293363D-01 -0.137332D-01
     35 -0.957319D-01 -0.957319D-01  0.184459D+00 -0.293363D-01 -0.137332D-01
     36 -0.216406D+00 -0.216406D+00  0.216406D+00  0.176576D+00 -0.844815D-01
     37 -0.363283D+00 -0.363283D+00  0.363283D+00  0.441824D+00 -0.192971D+00
     38 -0.283632D+00 -0.283632D+00  0.283632D+00  0.769942D+00 -0.267461D+00
     39  0.184459D+00 -0.957319D-01  0.957319D-01  0.293363D-01  0.104685D+00
     40 -0.957319D-01  0.184459D+00  0.957319D-01  0.293363D-01 -0.137332D-01
     41  0.957319D-01  0.957319D-01  0.184459D+00 -0.293363D-01  0.137332D-01
     42 -0.216406D+00  0.216406D+00 -0.216406D+00  0.176576D+00 -0.844815D-01
     43 -0.363283D+00  0.363283D+00 -0.363283D+00  0.441824D+00 -0.192971D+00
     44 -0.283632D+00  0.283632D+00 -0.283632D+00  0.769942D+00 -0.267461D+00
     45  0.184459D+00  0.957319D-01 -0.957319D-01  0.293363D-01  0.104685D+00
     46  0.957319D-01  0.184459D+00  0.957319D-01 -0.293363D-01  0.137332D-01
     47 -0.957319D-01  0.957319D-01  0.184459D+00  0.293363D-01 -0.137332D-01
     48  0.216406D+00 -0.216406D+00 -0.216406D+00  0.176576D+00  0.844815D-01
     49  0.363283D+00 -0.363283D+00 -0.363283D+00  0.441824D+00  0.192971D+00
     50  0.283632D+00 -0.283632D+00 -0.283632D+00  0.769942D+00  0.267461D+00
     51  0.184459D+00  0.957319D-01  0.957319D-01 -0.293363D-01  0.104685D+00
[...]
  47        4PZ         0.00001   0.00002   0.00002   0.00005   0.00005
  48 5   H  1S          0.00043   0.00043   0.00043   0.00047   0.00047
  49        2S          0.00042   0.00042   0.00042   0.00126   0.00126
  50        3S          0.00002   0.00002   0.00002   0.00003   0.00003
  51        4PX         0.00002   0.00002   0.00001  -0.00005   0.00005
  52        4PY         0.00002   0.00001   0.00002   0.00005  -0.00005
  53        4PZ         0.00001   0.00002   0.00002   0.00005   0.00005
                          26        27        28        29        30
  26        7ZZ         0.00036
  27        7XY         0.00000   0.00057
  28        7XZ         0.00000   0.00000   0.00057
  29        7YZ         0.00000   0.00000   0.00000   0.00057
  30 2   H  1S          0.00047   0.00093   0.00093   0.00093   0.07608
  31        2S          0.00126   0.00126   0.00126   0.00126   0.08260
  32        3S          0.00003   0.00012   0.00012   0.00012   0.01326
  33        4PX         0.00005  -0.00005  -0.00005   0.00001   0.00000
  34        4PY         0.00005  -0.00005   0.00001  -0.00005   0.00000
  35        4PZ        -0.00005   0.00001  -0.00005  -0.00005   0.00000
  36 3   H  1S          0.00047   0.00093   0.00093   0.00093  -0.00001
  37        2S          0.00126   0.00126   0.00126   0.00126  -0.00054
  38        3S          0.00003   0.00012   0.00012   0.00012  -0.00146
  39        4PX         0.00005  -0.00005  -0.00005   0.00001   0.00002
  40        4PY         0.00005  -0.00005   0.00001  -0.00005   0.00002
  41        4PZ        -0.00005   0.00001  -0.00005  -0.00005   0.00000
  42 4   H  1S          0.00047   0.00093   0.00093   0.00093  -0.00001
  43        2S          0.00126   0.00126   0.00126   0.00126  -0.00054
  44        3S          0.00003   0.00012   0.00012   0.00012  -0.00146
  45        4PX         0.00005  -0.00005  -0.00005   0.00001   0.00002
  46        4PY         0.00005  -0.00005   0.00001  -0.00005   0.00000
  47        4PZ        -0.00005   0.00001  -0.00005  -0.00005   0.00002
  48 5   H  1S          0.00047   0.00093   0.00093   0.00093  -0.00001
  49        2S          0.00126   0.00126   0.00126   0.00126  -0.00054
  50        3S          0.00003   0.00012   0.00012   0.00012  -0.00146
  51        4PX         0.00005  -0.00005  -0.00005   0.00001   0.00000
  52        4PY         0.00005  -0.00005   0.00001  -0.00005   0.00002
  53        4PZ        -0.00005   0.00001  -0.00005  -0.00005   0.00002
                          31        32        33        34        35
  31        2S          0.18037
  32        3S          0.04417   0.01989
  33        4PX         0.00000   0.00000   0.00083
  34        4PY         0.00000   0.00000   0.00000   0.00083
  35        4PZ         0.00000   0.00000   0.00000   0.00000   0.00083
  36 3   H  1S         -0.00054  -0.00146   0.00002   0.00002   0.00000
  37        2S         -0.00421  -0.00592   0.00017   0.00017   0.00000
  38        3S         -0.00592  -0.00372  -0.00001  -0.00001   0.00000
  39        4PX         0.00017  -0.00001   0.00001   0.00003   0.00000
  40        4PY         0.00017  -0.00001   0.00003   0.00001   0.00000
  41        4PZ         0.00000   0.00000   0.00000   0.00000  -0.00001
  42 4   H  1S         -0.00054  -0.00146   0.00002   0.00000   0.00002
  43        2S         -0.00421  -0.00592   0.00017   0.00000   0.00017
  44        3S         -0.00592  -0.00372  -0.00001   0.00000  -0.00001
  45        4PX         0.00017  -0.00001   0.00001   0.00000   0.00003
  46        4PY         0.00000   0.00000   0.00000  -0.00001   0.00000
  47        4PZ         0.00017  -0.00001   0.00003   0.00000   0.00001
  48 5   H  1S         -0.00054  -0.00146   0.00000   0.00002   0.00002
  49        2S         -0.00421  -0.00592   0.00000   0.00017   0.00017
  50        3S         -0.00592  -0.00372   0.00000  -0.00001  -0.00001
  51        4PX         0.00000   0.00000  -0.00001   0.00000   0.00000
  52        4PY         0.00017  -0.00001   0.00000   0.00001   0.00003
  53        4PZ         0.00017  -0.00001   0.00000   0.00003   0.00001
                          36        37        38        39        40
  36 3   H  1S          0.07608
  37        2S          0.08260   0.18037
  38        3S          0.01326   0.04417   0.01989
  39        4PX         0.00000   0.00000   0.00000   0.00083
  40        4PY         0.00000   0.00000   0.00000   0.00000   0.00083
  41        4PZ         0.00000   0.00000   0.00000   0.00000   0.00000
  42 4   H  1S         -0.00001  -0.00054  -0.00146   0.00000   0.00002
  43        2S         -0.00054  -0.00421  -0.00592   0.00000   0.00017
  44        3S         -0.00146  -0.00592  -0.00372   0.00000  -0.00001
  45        4PX         0.00000   0.00000   0.00000  -0.00001   0.00000
  46        4PY         0.00002   0.00017  -0.00001   0.00000   0.00001
  47        4PZ         0.00002   0.00017  -0.00001   0.00000   0.00003
  48 5   H  1S         -0.00001  -0.00054  -0.00146   0.00002   0.00000
  49        2S         -0.00054  -0.00421  -0.00592   0.00017   0.00000
  50        3S         -0.00146  -0.00592  -0.00372  -0.00001   0.00000
  51        4PX         0.00002   0.00017  -0.00001   0.00001   0.00000
  52        4PY         0.00000   0.00000   0.00000   0.00000  -0.00001
  53        4PZ         0.00002   0.00017  -0.00001   0.00003   0.00000
                          41        42        43        44        45
  41        4PZ         0.00083
  42 4   H  1S          0.00002   0.07608
  43        2S          0.00017   0.08260   0.18037
  44        3S         -0.00001   0.01326   0.04417   0.01989
  45        4PX         0.00000   0.00000   0.00000   0.00000   0.00083
  46        4PY         0.00003   0.00000   0.00000   0.00000   0.00000
  47        4PZ         0.00001   0.00000   0.00000   0.00000   0.00000
  48 5   H  1S          0.00002  -0.00001  -0.00054  -0.00146   0.00002
  49        2S          0.00017  -0.00054  -0.00421  -0.00592   0.00017
  50        3S         -0.00001  -0.00146  -0.00592  -0.00372  -0.00001
  51        4PX         0.00003   0.00002   0.00017  -0.00001   0.00001
  52        4PY         0.00000   0.00002   0.00017  -0.00001   0.00003
  53        4PZ         0.00001   0.00000   0.00000   0.00000   0.00000
                          46        47        48        49        50
  46        4PY         0.00083
  47        4PZ         0.00000   0.00083
  48 5   H  1S          0.00002   0.00000   0.07608
  49        2S          0.00017   0.00000   0.08260   0.18037
  50        3S         -0.00001   0.00000   0.01326   0.04417   0.01989
  51        4PX         0.00003   0.00000   0.00000   0.00000   0.00000
  52        4PY         0.00001   0.00000   0.00000   0.00000   0.00000
  53        4PZ         0.00000  -0.00001   0.00000   0.00000   0.00000
                          51        52        53
  51        4PX         0.00083
  52        4PY         0.00000   0.00083
  53        4PZ         0.00000   0.00000   0.00083
     Gross orbital populations:
                           1
   1 1   C  1S          1.10346
   2        2S          0.88993
   3        2PX         0.20239
   4        2PY         0.20239
   5        2PZ         0.20239
   6        3S          0.68482
   7        3PX         0.49934
   8        3PY         0.49934
   9        3PZ         0.49934
  10        4S          0.43370
  11        4PX         0.33548
  12        4PY         0.33548
  13        4PZ         0.33548
  14        5S          0.02438
  15        5PX         0.00735
  16        5PY         0.00735
  17        5PZ         0.00735
  18        6XX         0.00930
  19        6YY         0.00930
  20        6ZZ         0.00930
  21        6XY         0.00454
  22        6XZ         0.00454
  23        6YZ         0.00454
  24        7XX         0.01709
  25        7YY         0.01709
  26        7ZZ         0.01709
  27        7XY         0.00978
  28        7XZ         0.00978
  29        7YZ         0.00978
  30 2   H  1S          0.26937
  31        2S          0.52341
  32        3S          0.08231
  33        4PX         0.00896
  34        4PY         0.00896
  35        4PZ         0.00896
  36 3   H  1S          0.26937
  37        2S          0.52341
  38        3S          0.08231
  39        4PX         0.00896
  40        4PY         0.00896
  41        4PZ         0.00896
  42 4   H  1S          0.26937
  43        2S          0.52341
  44        3S          0.08231
  45        4PX         0.00896
  46        4PY         0.00896
  47        4PZ         0.00896
  48 5   H  1S          0.26937
  49        2S          0.52341
  50        3S          0.08231
  51        4PX         0.00896
  52        4PY         0.00896
  53        4PZ         0.00896
          Condensed to atoms (all electrons):
               1          2          3          4          5
     1  C    4.744235   0.411971   0.411971   0.411971   0.411971
     2  H    0.411971   0.558897  -0.022966  -0.022966  -0.022966
     3  H    0.411971  -0.022966   0.558897  -0.022966  -0.022966
     4  H    0.411971  -0.022966  -0.022966   0.558897  -0.022966
     5  H    0.411971  -0.022966  -0.022966  -0.022966   0.558897
 Mulliken charges:
               1
     1  C   -0.392118
     2  H    0.098029
     3  H    0.098029
     4  H    0.098029
     5  H    0.098029
 Sum of Mulliken charges =   0.00000
 Mulliken charges with hydrogens summed into heavy atoms:
               1
     1  C    0.000000
 Electronic spatial extent (au):  <R**2>=             35.5699
 Charge=              0.0000 electrons
 Dipole moment (field-independent basis, Debye):
    X=              0.0000    Y=              0.0000    Z=              0.0000  Tot=              0.0000
 Quadrupole moment (field-independent basis, Debye-Ang):
   XX=             -8.4089   YY=             -8.4089   ZZ=             -8.4089
   XY=              0.0000   XZ=              0.0000   YZ=              0.0000
 Traceless Quadrupole moment (field-independent basis, Debye-Ang):
   XX=              0.0000   YY=              0.0000   ZZ=              0.0000
   XY=              0.0000   XZ=              0.0000   YZ=              0.0000
 Octapole moment (field-independent basis, Debye-Ang**2):
  XXX=              0.0000  YYY=              0.0000  ZZZ=              0.0000  XYY=              0.0000
  XXY=              0.0000  XXZ=              0.0000  XZZ=              0.0000  YZZ=              0.0000
  YYZ=              0.0000  XYZ=              0.7121
 Hexadecapole moment (field-independent basis, Debye-Ang**3):
 XXXX=            -16.4542 YYYY=            -16.4542 ZZZZ=            -16.4542 XXXY=              0.0000
 XXXZ=              0.0000 YYYX=              0.0000 YYYZ=              0.0000 ZZZX=              0.0000
 ZZZY=              0.0000 XXYY=             -4.9539 XXZZ=             -4.9539 YYZZ=             -4.9539
 XXYZ=              0.0000 YYXZ=              0.0000 ZZXY=              0.0000
 N-N= 1.349784301922D+01 E-N=-1.200146978263D+02  KE= 4.017664567983D+01
 Symmetry A    KE= 3.445760818384D+01
 Symmetry B1   KE= 1.906345831995D+00
 Symmetry B2   KE= 1.906345831995D+00
 Symmetry B3   KE= 1.906345831995D+00
 Orbital energies and kinetic energies (alpha):
                                 1                 2
   1         (A1)--O         -11.205882         16.019859
   2         (A1)--O          -0.944742          1.208946
   3         (T2)--O          -0.546215          0.953173
   4         (T2)--O          -0.546215          0.953173
   5         (T2)--O          -0.546215          0.953173
   6         (A1)--V           0.073779          0.164774
   7         (T2)--V           0.109785          0.153235
   8         (T2)--V           0.109785          0.153235
   9         (T2)--V           0.109785          0.153235
  10         (T2)--V           0.272498          0.526954
  11         (T2)--V           0.272498          0.526954
  12         (T2)--V           0.272498          0.526954
  13         (A1)--V           0.291477          0.600333
  14         (T2)--V           0.530400          0.792456
  15         (T2)--V           0.530400          0.792456
  16         (T2)--V           0.530400          0.792456
  17         (A1)--V           0.637285          0.980198
  18         (E)--V            0.776764          1.091422
  19         (E)--V            0.776764          1.091422
  20         (T2)--V           0.795707          1.759761
  21         (T2)--V           0.795707          1.759761
  22         (T2)--V           0.795707          1.759761
  23         (A1)--V           0.816880          1.561018
  24         (T2)--V           1.232999          1.552189
  25         (T2)--V           1.232999          1.552189
  26         (T2)--V           1.232999          1.552189
  27         (A1)--V           1.695211          3.169116
  28         (T1)--V           1.727541          2.089710
  29         (T1)--V           1.727541          2.089710
  30         (T1)--V           1.727541          2.089710
  31         (T2)--V           2.107164          2.498285
  32         (T2)--V           2.107164          2.498285
  33         (T2)--V           2.107164          2.498285
  34         (T2)--V           2.501655          3.988144
  35         (T2)--V           2.501655          3.988144
  36         (T2)--V           2.501655          3.988144
  37         (E)--V            2.595582          2.894630
  38         (E)--V            2.595582          2.894630
  39         (A1)--V           2.641479          4.010688
  40         (T2)--V           2.944743          3.858832
  41         (T2)--V           2.944743          3.858832
  42         (T2)--V           2.944743          3.858832
  43         (A1)--V           3.370452          4.315833
  44         (T2)--V           3.518987          6.110496
  45         (T2)--V           3.518987          6.110496
  46         (T2)--V           3.518987          6.110496
  47         (E)--V            3.620941          4.920201
  48         (E)--V            3.620941          4.920201
  49         (T2)--V           4.613061          6.230725
  50         (T2)--V           4.613061          6.230725
  51         (T2)--V           4.613061          6.230725
  52         (A1)--V           9.266608         15.419000
  53         (A1)--V          36.201239         73.169869
 Total kinetic energy from orbitals= 4.017664567983D+01
 No NMR shielding tensors so no spin-rotation constants.
 Leave Link  601 at Fri May 29 15:52:04 2015, MaxMem=    33554432 cpu:               0.1 elap:               0.1
 (Enter /home/gauss/gdvi02/gdv/l9999.exe)
 Unable to Open any file for archive entry.
 1\1\GINC-MEDUSA\SP\RHF\6-311+G(2d,p)\C1H4\DBWY\29-May-2015\0\\#p hf/6-
 311+G(2d,p) GFInput pop=full iop33(3=5) output=RawMatrixElement units=
 bohr 6D\\CH4 6-31G SCF\\0,1\C,0,0.,0.,0.\H,0,0.6264000029,-0.626400002
 9,-0.6264000029\H,0,0.6264000029,0.6264000029,0.6264000029\H,0,-0.6264
 000029,0.6264000029,-0.6264000029\H,0,-0.6264000029,-0.6264000029,0.62
 64000029\\Version=ES64L-GDVRevI.02\State=1-A1\HF=-40.2104518\RMSD=7.61
 5e-09\Dipole=0.,0.,0.\Quadrupole=0.,0.,0.,0.,0.,0.\PG=TD [O(C1),4C3(H1
 )]\\@
 The archive entry for this job was punched.


 MAN IS A SINGULAR CREATURE.  HE HAS A SET OF GIFTS
 WHICH MAKE HIM UNIQUE AMONG THE ANIMALS: SO THAT, 
 UNLIKE THEM, HE IS NOT A FIGURE IN THE LANDSCAPE --
 HE IS A SHAPER OF THE LANDSCAPE.

                       -- JACOB BRONOWSKI

 Writing WrtUnf raw file "ch4_6311+g2dp.matel"
 Gaussian matrix elements                                         Version   2 NLab=11 Len12L=4 Len4L=4
 WrtUnf:  Coordinates translated and rotated.
 WrtUnf:  Coordinates match /B/ after translation and rotation.
 Write SHELL TO ATOM MAP                   from file     0 offset           0 length                  23 to matrix element file.
 Write SHELL TYPES                         from file     0 offset           0 length                  23 to matrix element file.
 Write NUMBER OF PRIMITIVES PER SHELL      from file     0 offset           0 length                  23 to matrix element file.
 Write PRIMITIVE EXPONENTS                 from file     0 offset           0 length                  38 to matrix element file.
 Write CONTRACTION COEFFICIENTS            from file     0 offset           0 length                  38 to matrix element file.
 Write P(S=P) CONTRACTION COEFFICIENTS     from file     0 offset           0 length                  38 to matrix element file.
 Write COORDINATES OF EACH SHELL           from file     0 offset           0 length                  69 to matrix element file.
 Write BONDS PER ATOM                      from file     0 offset           0 length                   5 to matrix element file.
 Write BONDED ATOMS                        from file     0 offset           0 length                   8 to matrix element file.
 Write BOND TYPES                          from file     0 offset           0 length                   8 to matrix element file.
 Write GAUSSIAN SCALARS                    from file   501 offset           0 to matrix element file.
 Write INTEGER ISO                         from file     0 offset           0 length                   5 to matrix element file.
 Write INTEGER SPIN                        from file     0 offset           0 length                   5 to matrix element file.
 Write REAL ZEFFECTIVE                     from file     0 offset           0 length                   5 to matrix element file.
 Write REAL GFACTOR                        from file     0 offset           0 length                   5 to matrix element file.
 Write REAL ZNUCLEAR                       from file     0 offset           0 length                   5 to matrix element file.
 Write NUCLEAR GRADIENT                    from file 10584 offset           0 length                  15 to matrix element file.
 Array NUCLEAR FORCE CONSTANTS              on  file 10585 does not exist.
 Write ELECTRIC DIPOLE MOMENT              from file     0 offset           0 length                   3 to matrix element file.
 Write OVERLAP                             from file   514 offset           0 length                1431 to matrix element file.
 Write CORE HAMILTONIAN ALPHA              from file   515 offset           0 length                1431 to matrix element file.
 Write CORE HAMILTONIAN BETA               from file   515 offset        1431 length                1431 to matrix element file.
 Write KINETIC ENERGY                      from file   516 offset           0 length                1431 to matrix element file.
 Write ORTHOGONAL BASIS                    from file   685 offset           0 length                2809 to matrix element file.
 Write DIPOLE INTEGRALS                    from file   518 offset           0 length                4293 to matrix element file.
 Array DIP VEL INTEGRALS                    on  file   572 does not exist.
 Array R X DEL INTEGRALS                    on  file   572 does not exist.
 Write ALPHA ORBITAL ENERGIES              from file     0 offset           0 length                  53 to matrix element file.
 Write ALPHA MO COEFFICIENTS               from file 10524 offset           0 length                2809 to matrix element file.
 Write ALPHA DENSITY MATRIX                from file 10528 offset           0 length                1431 to matrix element file.
 Write ALPHA SCF DENSITY MATRIX            from file 10528 offset           0 length                1431 to matrix element file.
 Write ALPHA FOCK MATRIX                   from file 10536 offset           0 length                1431 to matrix element file.
 No 2e integrals to process.
 Job cpu time:       0 days  0 hours  0 minutes  1.2 seconds.
 Elapsed time:       0 days  0 hours  0 minutes  1.0 seconds.
 File lengths (MBytes):  RWF=      5 Int=      0 D2E=      0 Chk=      1 Scr=      1
 Normal termination of Gaussian DV at Fri May 29 15:52:04 2015.
